LAMMPS (24 Mar 2022)
Reading data file ...
  orthogonal box = (0 0 0) to (50 50 50)
  1 by 1 by 1 MPI processor grid
  reading atoms ...
  13 atoms
  read_data CPU = 0.001 seconds
WARNING: No fixes with time integration, atoms won't move (../verlet.cpp:60)
Neighbor list info ...
  update every 1 steps, delay 0 steps, check yes
  max neighbors/atom: 5000, page size: 100000
  master list distance cutoff = 13.999
  ghost atom cutoff = 13.999
  binsize = 6.9995, bins = 8 8 8
  1 neighbor lists, perpetual/occasional/extra = 1 0 0
  (1) pair eam, perpetual
      attributes: half, newton on
      pair build: half/bin/atomonly/newton
      stencil: half/bin/3d
      bin: standard
Setting up Verlet run ...
  Unit style    : metal
  Current step  : 0
  Time step     : 0.001
Per MPI rank memory allocation (min/avg/max) = 3.17 | 3.17 | 3.17 Mbytes
   Step         TotEng        Atoms        Volume    
         0  -20.812094419455         13  125000
Loop time of 8.572e-06 on 1 procs for 0 steps with 13 atoms

58.3% CPU use with 1 MPI tasks x no OpenMP threads

MPI task timing breakdown:
Section |  min time  |  avg time  |  max time  |%varavg| %total
---------------------------------------------------------------
Pair    | 0          | 0          | 0          |   0.0 |  0.00
Neigh   | 0          | 0          | 0          |   0.0 |  0.00
Comm    | 0          | 0          | 0          |   0.0 |  0.00
Output  | 0          | 0          | 0          |   0.0 |  0.00
Modify  | 0          | 0          | 0          |   0.0 |  0.00
Other   |            | 8.572e-06  |            |       |100.00

Nlocal:             13 ave          13 max          13 min
Histogram: 1 0 0 0 0 0 0 0 0 0
Nghost:              0 ave           0 max           0 min
Histogram: 1 0 0 0 0 0 0 0 0 0
Neighs:             78 ave          78 max          78 min
Histogram: 1 0 0 0 0 0 0 0 0 0

Total # of neighbors = 78
Ave neighs/atom = 6
Neighbor list builds = 0
Dangerous builds = 0
Setting up cg style minimization ...
  Unit style    : metal
  Current step  : 0
Per MPI rank memory allocation (min/avg/max) = 4.295 | 4.295 | 4.295 Mbytes
   Step         TotEng        Atoms        Volume    
         0  -20.812094419455         13  125000
       217  -41.260725732884         13  125000
Loop time of 0.00426205 on 1 procs for 217 steps with 13 atoms

0.0% CPU use with 1 MPI tasks x no OpenMP threads

Minimization stats:
  Stopping criterion = energy tolerance
  Energy initial, next-to-last, final = 
     -20.8120944194549  -41.2607255303198  -41.2607257328837
  Force two-norm initial, final = 6.5612833 0.0016659243
  Force max component initial, final = 2.0067602 0.0007141239
  Final line search alpha, max atom move = 1 0.0007141239
  Iterations, force evaluations = 217 403

MPI task timing breakdown:
Section |  min time  |  avg time  |  max time  |%varavg| %total
---------------------------------------------------------------
Pair    | 0.0029277  | 0.0029277  | 0.0029277  |   0.0 | 68.69
Neigh   | 3.0102e-05 | 3.0102e-05 | 3.0102e-05 |   0.0 |  0.71
Comm    | 0.0006012  | 0.0006012  | 0.0006012  |   0.0 | 14.11
Output  | 0          | 0          | 0          |   0.0 |  0.00
Modify  | 0          | 0          | 0          |   0.0 |  0.00
Other   |            | 0.000703   |            |       | 16.49

Nlocal:             13 ave          13 max          13 min
Histogram: 1 0 0 0 0 0 0 0 0 0
Nghost:              0 ave           0 max           0 min
Histogram: 1 0 0 0 0 0 0 0 0 0
Neighs:             78 ave          78 max          78 min
Histogram: 1 0 0 0 0 0 0 0 0 0

Total # of neighbors = 78
Ave neighs/atom = 6
Neighbor list builds = 7
Dangerous builds = 0
System init for write_data ...
   Step         TotEng        Atoms        Volume    
       217  -41.260725732884         13  125000
Loop time of 9.101e-06 on 1 procs for 0 steps with 13 atoms

65.9% CPU use with 1 MPI tasks x no OpenMP threads

MPI task timing breakdown:
Section |  min time  |  avg time  |  max time  |%varavg| %total
---------------------------------------------------------------
Pair    | 0          | 0          | 0          |   0.0 |  0.00
Neigh   | 0          | 0          | 0          |   0.0 |  0.00
Comm    | 0          | 0          | 0          |   0.0 |  0.00
Output  | 0          | 0          | 0          |   0.0 |  0.00
Modify  | 0          | 0          | 0          |   0.0 |  0.00
Other   |            | 9.101e-06  |            |       |100.00

Nlocal:             13 ave          13 max          13 min
Histogram: 1 0 0 0 0 0 0 0 0 0
Nghost:              0 ave           0 max           0 min
Histogram: 1 0 0 0 0 0 0 0 0 0
Neighs:             78 ave          78 max          78 min
Histogram: 1 0 0 0 0 0 0 0 0 0

Total # of neighbors = 78
Ave neighs/atom = 6
Neighbor list builds = 0
Dangerous builds = 0
Reading data file ...
  orthogonal box = (0 0 0) to (50 50 50)
  1 by 1 by 1 MPI processor grid
  reading atoms ...
  13 atoms
  read_data CPU = 0.000 seconds
WARNING: No fixes with time integration, atoms won't move (../verlet.cpp:60)
Neighbor list info ...
  update every 1 steps, delay 0 steps, check yes
  max neighbors/atom: 5000, page size: 100000
  master list distance cutoff = 13.999
  ghost atom cutoff = 13.999
  binsize = 6.9995, bins = 8 8 8
  1 neighbor lists, perpetual/occasional/extra = 1 0 0
  (1) pair eam, perpetual
      attributes: half, newton on
      pair build: half/bin/atomonly/newton
      stencil: half/bin/3d
      bin: standard
Setting up Verlet run ...
  Unit style    : metal
  Current step  : 0
  Time step     : 0.001
Per MPI rank memory allocation (min/avg/max) = 3.17 | 3.17 | 3.17 Mbytes
   Step         TotEng        Atoms        Volume    
         0  -29.823065835537         13  125000
Loop time of 8.527e-06 on 1 procs for 0 steps with 13 atoms

58.6% CPU use with 1 MPI tasks x no OpenMP threads

MPI task timing breakdown:
Section |  min time  |  avg time  |  max time  |%varavg| %total
---------------------------------------------------------------
Pair    | 0          | 0          | 0          |   0.0 |  0.00
Neigh   | 0          | 0          | 0          |   0.0 |  0.00
Comm    | 0          | 0          | 0          |   0.0 |  0.00
Output  | 0          | 0          | 0          |   0.0 |  0.00
Modify  | 0          | 0          | 0          |   0.0 |  0.00
Other   |            | 8.527e-06  |            |       |100.00

Nlocal:             13 ave          13 max          13 min
Histogram: 1 0 0 0 0 0 0 0 0 0
Nghost:              0 ave           0 max           0 min
Histogram: 1 0 0 0 0 0 0 0 0 0
Neighs:             78 ave          78 max          78 min
Histogram: 1 0 0 0 0 0 0 0 0 0

Total # of neighbors = 78
Ave neighs/atom = 6
Neighbor list builds = 0
Dangerous builds = 0
Setting up cg style minimization ...
  Unit style    : metal
  Current step  : 0
Per MPI rank memory allocation (min/avg/max) = 4.295 | 4.295 | 4.295 Mbytes
   Step         TotEng        Atoms        Volume    
         0  -29.823065835537         13  125000
        65  -41.26072533084         13  125000
Loop time of 0.00116301 on 1 procs for 65 steps with 13 atoms

39.6% CPU use with 1 MPI tasks x no OpenMP threads

Minimization stats:
  Stopping criterion = energy tolerance
  Energy initial, next-to-last, final = 
     -29.8230658355371  -41.2607250369053  -41.2607253308397
  Force two-norm initial, final = 48.006052 0.0020972876
  Force max component initial, final = 23.515051 0.00089822416
  Final line search alpha, max atom move = 1 0.00089822416
  Iterations, force evaluations = 65 120

MPI task timing breakdown:
Section |  min time  |  avg time  |  max time  |%varavg| %total
---------------------------------------------------------------
Pair    | 0.00076127 | 0.00076127 | 0.00076127 |   0.0 | 65.46
Neigh   | 4.508e-06  | 4.508e-06  | 4.508e-06  |   0.0 |  0.39
Comm    | 0.00017612 | 0.00017612 | 0.00017612 |   0.0 | 15.14
Output  | 0          | 0          | 0          |   0.0 |  0.00
Modify  | 0          | 0          | 0          |   0.0 |  0.00
Other   |            | 0.0002211  |            |       | 19.01

Nlocal:             13 ave          13 max          13 min
Histogram: 1 0 0 0 0 0 0 0 0 0
Nghost:              0 ave           0 max           0 min
Histogram: 1 0 0 0 0 0 0 0 0 0
Neighs:             78 ave          78 max          78 min
Histogram: 1 0 0 0 0 0 0 0 0 0

Total # of neighbors = 78
Ave neighs/atom = 6
Neighbor list builds = 1
Dangerous builds = 0
System init for write_data ...
   Step         TotEng        Atoms        Volume    
        65  -41.26072533084         13  125000
Loop time of 8.056e-06 on 1 procs for 0 steps with 13 atoms

74.5% CPU use with 1 MPI tasks x no OpenMP threads

MPI task timing breakdown:
Section |  min time  |  avg time  |  max time  |%varavg| %total
---------------------------------------------------------------
Pair    | 0          | 0          | 0          |   0.0 |  0.00
Neigh   | 0          | 0          | 0          |   0.0 |  0.00
Comm    | 0          | 0          | 0          |   0.0 |  0.00
Output  | 0          | 0          | 0          |   0.0 |  0.00
Modify  | 0          | 0          | 0          |   0.0 |  0.00
Other   |            | 8.056e-06  |            |       |100.00

Nlocal:             13 ave          13 max          13 min
Histogram: 1 0 0 0 0 0 0 0 0 0
Nghost:              0 ave           0 max           0 min
Histogram: 1 0 0 0 0 0 0 0 0 0
Neighs:             78 ave          78 max          78 min
Histogram: 1 0 0 0 0 0 0 0 0 0

Total # of neighbors = 78
Ave neighs/atom = 6
Neighbor list builds = 0
Dangerous builds = 0
Reading data file ...
  orthogonal box = (0 0 0) to (50 50 50)
  1 by 1 by 1 MPI processor grid
  reading atoms ...
  13 atoms
  read_data CPU = 0.000 seconds
WARNING: No fixes with time integration, atoms won't move (../verlet.cpp:60)
Neighbor list info ...
  update every 1 steps, delay 0 steps, check yes
  max neighbors/atom: 5000, page size: 100000
  master list distance cutoff = 13.999
  ghost atom cutoff = 13.999
  binsize = 6.9995, bins = 8 8 8
  1 neighbor lists, perpetual/occasional/extra = 1 0 0
  (1) pair eam, perpetual
      attributes: half, newton on
      pair build: half/bin/atomonly/newton
      stencil: half/bin/3d
      bin: standard
Setting up Verlet run ...
  Unit style    : metal
  Current step  : 0
  Time step     : 0.001
Per MPI rank memory allocation (min/avg/max) = 3.17 | 3.17 | 3.17 Mbytes
   Step         TotEng        Atoms        Volume    
         0  -34.643547290766         13  125000
Loop time of 8.425e-06 on 1 procs for 0 steps with 13 atoms

47.5% CPU use with 1 MPI tasks x no OpenMP threads

MPI task timing breakdown:
Section |  min time  |  avg time  |  max time  |%varavg| %total
---------------------------------------------------------------
Pair    | 0          | 0          | 0          |   0.0 |  0.00
Neigh   | 0          | 0          | 0          |   0.0 |  0.00
Comm    | 0          | 0          | 0          |   0.0 |  0.00
Output  | 0          | 0          | 0          |   0.0 |  0.00
Modify  | 0          | 0          | 0          |   0.0 |  0.00
Other   |            | 8.425e-06  |            |       |100.00

Nlocal:             13 ave          13 max          13 min
Histogram: 1 0 0 0 0 0 0 0 0 0
Nghost:              0 ave           0 max           0 min
Histogram: 1 0 0 0 0 0 0 0 0 0
Neighs:             78 ave          78 max          78 min
Histogram: 1 0 0 0 0 0 0 0 0 0

Total # of neighbors = 78
Ave neighs/atom = 6
Neighbor list builds = 0
Dangerous builds = 0
Setting up cg style minimization ...
  Unit style    : metal
  Current step  : 0
Per MPI rank memory allocation (min/avg/max) = 4.295 | 4.295 | 4.295 Mbytes
   Step         TotEng        Atoms        Volume    
         0  -34.643547290766         13  125000
        46  -41.772957918839         13  125000
Loop time of 0.000787094 on 1 procs for 46 steps with 13 atoms

40.8% CPU use with 1 MPI tasks x no OpenMP threads

Minimization stats:
  Stopping criterion = energy tolerance
  Energy initial, next-to-last, final = 
     -34.6435472907662  -41.7729576746661  -41.7729579188391
  Force two-norm initial, final = 21.624939 0.001172636
  Force max component initial, final = 11.614515 0.00047227672
  Final line search alpha, max atom move = 1 0.00047227672
  Iterations, force evaluations = 46 78

MPI task timing breakdown:
Section |  min time  |  avg time  |  max time  |%varavg| %total
---------------------------------------------------------------
Pair    | 0.0004991  | 0.0004991  | 0.0004991  |   0.0 | 63.41
Neigh   | 4.363e-06  | 4.363e-06  | 4.363e-06  |   0.0 |  0.55
Comm    | 0.0001178  | 0.0001178  | 0.0001178  |   0.0 | 14.97
Output  | 0          | 0          | 0          |   0.0 |  0.00
Modify  | 0          | 0          | 0          |   0.0 |  0.00
Other   |            | 0.0001658  |            |       | 21.07

Nlocal:             13 ave          13 max          13 min
Histogram: 1 0 0 0 0 0 0 0 0 0
Nghost:              0 ave           0 max           0 min
Histogram: 1 0 0 0 0 0 0 0 0 0
Neighs:             78 ave          78 max          78 min
Histogram: 1 0 0 0 0 0 0 0 0 0

Total # of neighbors = 78
Ave neighs/atom = 6
Neighbor list builds = 1
Dangerous builds = 0
System init for write_data ...
   Step         TotEng        Atoms        Volume    
        46  -41.772957918839         13  125000
Loop time of 8.243e-06 on 1 procs for 0 steps with 13 atoms

169.8% CPU use with 1 MPI tasks x no OpenMP threads

MPI task timing breakdown:
Section |  min time  |  avg time  |  max time  |%varavg| %total
---------------------------------------------------------------
Pair    | 0          | 0          | 0          |   0.0 |  0.00
Neigh   | 0          | 0          | 0          |   0.0 |  0.00
Comm    | 0          | 0          | 0          |   0.0 |  0.00
Output  | 0          | 0          | 0          |   0.0 |  0.00
Modify  | 0          | 0          | 0          |   0.0 |  0.00
Other   |            | 8.243e-06  |            |       |100.00

Nlocal:             13 ave          13 max          13 min
Histogram: 1 0 0 0 0 0 0 0 0 0
Nghost:              0 ave           0 max           0 min
Histogram: 1 0 0 0 0 0 0 0 0 0
Neighs:             78 ave          78 max          78 min
Histogram: 1 0 0 0 0 0 0 0 0 0

Total # of neighbors = 78
Ave neighs/atom = 6
Neighbor list builds = 0
Dangerous builds = 0
Reading data file ...
  orthogonal box = (0 0 0) to (50 50 50)
  1 by 1 by 1 MPI processor grid
  reading atoms ...
  13 atoms
  read_data CPU = 0.000 seconds
WARNING: No fixes with time integration, atoms won't move (../verlet.cpp:60)
Neighbor list info ...
  update every 1 steps, delay 0 steps, check yes
  max neighbors/atom: 5000, page size: 100000
  master list distance cutoff = 13.999
  ghost atom cutoff = 13.999
  binsize = 6.9995, bins = 8 8 8
  1 neighbor lists, perpetual/occasional/extra = 1 0 0
  (1) pair eam, perpetual
      attributes: half, newton on
      pair build: half/bin/atomonly/newton
      stencil: half/bin/3d
      bin: standard
Setting up Verlet run ...
  Unit style    : metal
  Current step  : 0
  Time step     : 0.001
Per MPI rank memory allocation (min/avg/max) = 3.17 | 3.17 | 3.17 Mbytes
   Step         TotEng        Atoms        Volume    
         0  -25.875553195804         13  125000
Loop time of 8.944e-06 on 1 procs for 0 steps with 13 atoms

44.7% CPU use with 1 MPI tasks x no OpenMP threads

MPI task timing breakdown:
Section |  min time  |  avg time  |  max time  |%varavg| %total
---------------------------------------------------------------
Pair    | 0          | 0          | 0          |   0.0 |  0.00
Neigh   | 0          | 0          | 0          |   0.0 |  0.00
Comm    | 0          | 0          | 0          |   0.0 |  0.00
Output  | 0          | 0          | 0          |   0.0 |  0.00
Modify  | 0          | 0          | 0          |   0.0 |  0.00
Other   |            | 8.944e-06  |            |       |100.00

Nlocal:             13 ave          13 max          13 min
Histogram: 1 0 0 0 0 0 0 0 0 0
Nghost:              0 ave           0 max           0 min
Histogram: 1 0 0 0 0 0 0 0 0 0
Neighs:             78 ave          78 max          78 min
Histogram: 1 0 0 0 0 0 0 0 0 0

Total # of neighbors = 78
Ave neighs/atom = 6
Neighbor list builds = 0
Dangerous builds = 0
Setting up cg style minimization ...
  Unit style    : metal
  Current step  : 0
Per MPI rank memory allocation (min/avg/max) = 4.295 | 4.295 | 4.295 Mbytes
   Step         TotEng        Atoms        Volume    
         0  -25.875553195804         13  125000
        49  -41.483473997093         13  125000
Loop time of 0.000827556 on 1 procs for 49 steps with 13 atoms

41.6% CPU use with 1 MPI tasks x no OpenMP threads

Minimization stats:
  Stopping criterion = energy tolerance
  Energy initial, next-to-last, final = 
      -25.875553195804  -41.4834738666566  -41.4834739970927
  Force two-norm initial, final = 67.636508 0.0010771336
  Force max component initial, final = 27.121141 0.00039593964
  Final line search alpha, max atom move = 1 0.00039593964
  Iterations, force evaluations = 49 85

MPI task timing breakdown:
Section |  min time  |  avg time  |  max time  |%varavg| %total
---------------------------------------------------------------
Pair    | 0.00053931 | 0.00053931 | 0.00053931 |   0.0 | 65.17
Neigh   | 4.344e-06  | 4.344e-06  | 4.344e-06  |   0.0 |  0.52
Comm    | 0.00012323 | 0.00012323 | 0.00012323 |   0.0 | 14.89
Output  | 0          | 0          | 0          |   0.0 |  0.00
Modify  | 0          | 0          | 0          |   0.0 |  0.00
Other   |            | 0.0001607  |            |       | 19.42

Nlocal:             13 ave          13 max          13 min
Histogram: 1 0 0 0 0 0 0 0 0 0
Nghost:              0 ave           0 max           0 min
Histogram: 1 0 0 0 0 0 0 0 0 0
Neighs:             78 ave          78 max          78 min
Histogram: 1 0 0 0 0 0 0 0 0 0

Total # of neighbors = 78
Ave neighs/atom = 6
Neighbor list builds = 1
Dangerous builds = 0
System init for write_data ...
   Step         TotEng        Atoms        Volume    
        49  -41.483473997093         13  125000
Loop time of 9.887e-06 on 1 procs for 0 steps with 13 atoms

182.1% CPU use with 1 MPI tasks x no OpenMP threads

MPI task timing breakdown:
Section |  min time  |  avg time  |  max time  |%varavg| %total
---------------------------------------------------------------
Pair    | 0          | 0          | 0          |   0.0 |  0.00
Neigh   | 0          | 0          | 0          |   0.0 |  0.00
Comm    | 0          | 0          | 0          |   0.0 |  0.00
Output  | 0          | 0          | 0          |   0.0 |  0.00
Modify  | 0          | 0          | 0          |   0.0 |  0.00
Other   |            | 9.887e-06  |            |       |100.00

Nlocal:             13 ave          13 max          13 min
Histogram: 1 0 0 0 0 0 0 0 0 0
Nghost:              0 ave           0 max           0 min
Histogram: 1 0 0 0 0 0 0 0 0 0
Neighs:             78 ave          78 max          78 min
Histogram: 1 0 0 0 0 0 0 0 0 0

Total # of neighbors = 78
Ave neighs/atom = 6
Neighbor list builds = 0
Dangerous builds = 0
Reading data file ...
  orthogonal box = (0 0 0) to (50 50 50)
  1 by 1 by 1 MPI processor grid
  reading atoms ...
  13 atoms
  read_data CPU = 0.000 seconds
WARNING: No fixes with time integration, atoms won't move (../verlet.cpp:60)
Neighbor list info ...
  update every 1 steps, delay 0 steps, check yes
  max neighbors/atom: 5000, page size: 100000
  master list distance cutoff = 13.999
  ghost atom cutoff = 13.999
  binsize = 6.9995, bins = 8 8 8
  1 neighbor lists, perpetual/occasional/extra = 1 0 0
  (1) pair eam, perpetual
      attributes: half, newton on
      pair build: half/bin/atomonly/newton
      stencil: half/bin/3d
      bin: standard
Setting up Verlet run ...
  Unit style    : metal
  Current step  : 0
  Time step     : 0.001
Per MPI rank memory allocation (min/avg/max) = 3.17 | 3.17 | 3.17 Mbytes
   Step         TotEng        Atoms        Volume    
         0  -31.487456741487         13  125000
Loop time of 1.012e-05 on 1 procs for 0 steps with 13 atoms

59.3% CPU use with 1 MPI tasks x no OpenMP threads

MPI task timing breakdown:
Section |  min time  |  avg time  |  max time  |%varavg| %total
---------------------------------------------------------------
Pair    | 0          | 0          | 0          |   0.0 |  0.00
Neigh   | 0          | 0          | 0          |   0.0 |  0.00
Comm    | 0          | 0          | 0          |   0.0 |  0.00
Output  | 0          | 0          | 0          |   0.0 |  0.00
Modify  | 0          | 0          | 0          |   0.0 |  0.00
Other   |            | 1.012e-05  |            |       |100.00

Nlocal:             13 ave          13 max          13 min
Histogram: 1 0 0 0 0 0 0 0 0 0
Nghost:              0 ave           0 max           0 min
Histogram: 1 0 0 0 0 0 0 0 0 0
Neighs:             78 ave          78 max          78 min
Histogram: 1 0 0 0 0 0 0 0 0 0

Total # of neighbors = 78
Ave neighs/atom = 6
Neighbor list builds = 0
Dangerous builds = 0
Setting up cg style minimization ...
  Unit style    : metal
  Current step  : 0
Per MPI rank memory allocation (min/avg/max) = 4.295 | 4.295 | 4.295 Mbytes
   Step         TotEng        Atoms        Volume    
         0  -31.487456741487         13  125000
        49  -41.772957849083         13  125000
Loop time of 0.00133091 on 1 procs for 49 steps with 13 atoms

99.9% CPU use with 1 MPI tasks x no OpenMP threads

Minimization stats:
  Stopping criterion = energy tolerance
  Energy initial, next-to-last, final = 
     -31.4874567414874  -41.7729576831792  -41.7729578490834
  Force two-norm initial, final = 42.159037 0.0011387593
  Force max component initial, final = 19.396368 0.00047660415
  Final line search alpha, max atom move = 1 0.00047660415
  Iterations, force evaluations = 49 88

MPI task timing breakdown:
Section |  min time  |  avg time  |  max time  |%varavg| %total
---------------------------------------------------------------
Pair    | 0.00089013 | 0.00089013 | 0.00089013 |   0.0 | 66.88
Neigh   | 7.462e-06  | 7.462e-06  | 7.462e-06  |   0.0 |  0.56
Comm    | 0.00017975 | 0.00017975 | 0.00017975 |   0.0 | 13.51
Output  | 0          | 0          | 0          |   0.0 |  0.00
Modify  | 0          | 0          | 0          |   0.0 |  0.00
Other   |            | 0.0002536  |            |       | 19.05

Nlocal:             13 ave          13 max          13 min
Histogram: 1 0 0 0 0 0 0 0 0 0
Nghost:              0 ave           0 max           0 min
Histogram: 1 0 0 0 0 0 0 0 0 0
Neighs:             78 ave          78 max          78 min
Histogram: 1 0 0 0 0 0 0 0 0 0

Total # of neighbors = 78
Ave neighs/atom = 6
Neighbor list builds = 1
Dangerous builds = 0
System init for write_data ...
   Step         TotEng        Atoms        Volume    
        49  -41.772957849083         13  125000
Loop time of 9.1e-06 on 1 procs for 0 steps with 13 atoms

329.7% CPU use with 1 MPI tasks x no OpenMP threads

MPI task timing breakdown:
Section |  min time  |  avg time  |  max time  |%varavg| %total
---------------------------------------------------------------
Pair    | 0          | 0          | 0          |   0.0 |  0.00
Neigh   | 0          | 0          | 0          |   0.0 |  0.00
Comm    | 0          | 0          | 0          |   0.0 |  0.00
Output  | 0          | 0          | 0          |   0.0 |  0.00
Modify  | 0          | 0          | 0          |   0.0 |  0.00
Other   |            | 9.1e-06    |            |       |100.00

Nlocal:             13 ave          13 max          13 min
Histogram: 1 0 0 0 0 0 0 0 0 0
Nghost:              0 ave           0 max           0 min
Histogram: 1 0 0 0 0 0 0 0 0 0
Neighs:             78 ave          78 max          78 min
Histogram: 1 0 0 0 0 0 0 0 0 0

Total # of neighbors = 78
Ave neighs/atom = 6
Neighbor list builds = 0
Dangerous builds = 0
Reading data file ...
  orthogonal box = (0 0 0) to (50 50 50)
  1 by 1 by 1 MPI processor grid
  reading atoms ...
  13 atoms
  read_data CPU = 0.000 seconds
WARNING: No fixes with time integration, atoms won't move (../verlet.cpp:60)
Neighbor list info ...
  update every 1 steps, delay 0 steps, check yes
  max neighbors/atom: 5000, page size: 100000
  master list distance cutoff = 13.999
  ghost atom cutoff = 13.999
  binsize = 6.9995, bins = 8 8 8
  1 neighbor lists, perpetual/occasional/extra = 1 0 0
  (1) pair eam, perpetual
      attributes: half, newton on
      pair build: half/bin/atomonly/newton
      stencil: half/bin/3d
      bin: standard
Setting up Verlet run ...
  Unit style    : metal
  Current step  : 0
  Time step     : 0.001
Per MPI rank memory allocation (min/avg/max) = 3.17 | 3.17 | 3.17 Mbytes
   Step         TotEng        Atoms        Volume    
         0  -17.28146061002         13  125000
Loop time of 8.612e-06 on 1 procs for 0 steps with 13 atoms

58.1% CPU use with 1 MPI tasks x no OpenMP threads

MPI task timing breakdown:
Section |  min time  |  avg time  |  max time  |%varavg| %total
---------------------------------------------------------------
Pair    | 0          | 0          | 0          |   0.0 |  0.00
Neigh   | 0          | 0          | 0          |   0.0 |  0.00
Comm    | 0          | 0          | 0          |   0.0 |  0.00
Output  | 0          | 0          | 0          |   0.0 |  0.00
Modify  | 0          | 0          | 0          |   0.0 |  0.00
Other   |            | 8.612e-06  |            |       |100.00

Nlocal:             13 ave          13 max          13 min
Histogram: 1 0 0 0 0 0 0 0 0 0
Nghost:              0 ave           0 max           0 min
Histogram: 1 0 0 0 0 0 0 0 0 0
Neighs:             78 ave          78 max          78 min
Histogram: 1 0 0 0 0 0 0 0 0 0

Total # of neighbors = 78
Ave neighs/atom = 6
Neighbor list builds = 0
Dangerous builds = 0
Setting up cg style minimization ...
  Unit style    : metal
  Current step  : 0
Per MPI rank memory allocation (min/avg/max) = 4.295 | 4.295 | 4.295 Mbytes
   Step         TotEng        Atoms        Volume    
         0  -17.28146061002         13  125000
        49  -41.772957904522         13  125000
Loop time of 0.00090305 on 1 procs for 49 steps with 13 atoms

60.2% CPU use with 1 MPI tasks x no OpenMP threads

Minimization stats:
  Stopping criterion = energy tolerance
  Energy initial, next-to-last, final = 
     -17.2814606100202  -41.7729576623281  -41.7729579045219
  Force two-norm initial, final = 98.69018 0.0013918988
  Force max component initial, final = 41.863568 0.00050861161
  Final line search alpha, max atom move = 1 0.00050861161
  Iterations, force evaluations = 49 86

MPI task timing breakdown:
Section |  min time  |  avg time  |  max time  |%varavg| %total
---------------------------------------------------------------
Pair    | 0.00058299 | 0.00058299 | 0.00058299 |   0.0 | 64.56
Neigh   | 4.429e-06  | 4.429e-06  | 4.429e-06  |   0.0 |  0.49
Comm    | 0.00013318 | 0.00013318 | 0.00013318 |   0.0 | 14.75
Output  | 0          | 0          | 0          |   0.0 |  0.00
Modify  | 0          | 0          | 0          |   0.0 |  0.00
Other   |            | 0.0001825  |            |       | 20.20

Nlocal:             13 ave          13 max          13 min
Histogram: 1 0 0 0 0 0 0 0 0 0
Nghost:              0 ave           0 max           0 min
Histogram: 1 0 0 0 0 0 0 0 0 0
Neighs:             78 ave          78 max          78 min
Histogram: 1 0 0 0 0 0 0 0 0 0

Total # of neighbors = 78
Ave neighs/atom = 6
Neighbor list builds = 1
Dangerous builds = 0
System init for write_data ...
   Step         TotEng        Atoms        Volume    
        49  -41.772957904522         13  125000
Loop time of 8.256e-06 on 1 procs for 0 steps with 13 atoms

169.6% CPU use with 1 MPI tasks x no OpenMP threads

MPI task timing breakdown:
Section |  min time  |  avg time  |  max time  |%varavg| %total
---------------------------------------------------------------
Pair    | 0          | 0          | 0          |   0.0 |  0.00
Neigh   | 0          | 0          | 0          |   0.0 |  0.00
Comm    | 0          | 0          | 0          |   0.0 |  0.00
Output  | 0          | 0          | 0          |   0.0 |  0.00
Modify  | 0          | 0          | 0          |   0.0 |  0.00
Other   |            | 8.256e-06  |            |       |100.00

Nlocal:             13 ave          13 max          13 min
Histogram: 1 0 0 0 0 0 0 0 0 0
Nghost:              0 ave           0 max           0 min
Histogram: 1 0 0 0 0 0 0 0 0 0
Neighs:             78 ave          78 max          78 min
Histogram: 1 0 0 0 0 0 0 0 0 0

Total # of neighbors = 78
Ave neighs/atom = 6
Neighbor list builds = 0
Dangerous builds = 0
Reading data file ...
  orthogonal box = (0 0 0) to (50 50 50)
  1 by 1 by 1 MPI processor grid
  reading atoms ...
  13 atoms
  read_data CPU = 0.000 seconds
WARNING: No fixes with time integration, atoms won't move (../verlet.cpp:60)
Neighbor list info ...
  update every 1 steps, delay 0 steps, check yes
  max neighbors/atom: 5000, page size: 100000
  master list distance cutoff = 13.999
  ghost atom cutoff = 13.999
  binsize = 6.9995, bins = 8 8 8
  1 neighbor lists, perpetual/occasional/extra = 1 0 0
  (1) pair eam, perpetual
      attributes: half, newton on
      pair build: half/bin/atomonly/newton
      stencil: half/bin/3d
      bin: standard
Setting up Verlet run ...
  Unit style    : metal
  Current step  : 0
  Time step     : 0.001
Per MPI rank memory allocation (min/avg/max) = 3.17 | 3.17 | 3.17 Mbytes
   Step         TotEng        Atoms        Volume    
         0  -19.690324942749         13  125000
Loop time of 8.508e-06 on 1 procs for 0 steps with 13 atoms

58.8% CPU use with 1 MPI tasks x no OpenMP threads

MPI task timing breakdown:
Section |  min time  |  avg time  |  max time  |%varavg| %total
---------------------------------------------------------------
Pair    | 0          | 0          | 0          |   0.0 |  0.00
Neigh   | 0          | 0          | 0          |   0.0 |  0.00
Comm    | 0          | 0          | 0          |   0.0 |  0.00
Output  | 0          | 0          | 0          |   0.0 |  0.00
Modify  | 0          | 0          | 0          |   0.0 |  0.00
Other   |            | 8.508e-06  |            |       |100.00

Nlocal:             13 ave          13 max          13 min
Histogram: 1 0 0 0 0 0 0 0 0 0
Nghost:              0 ave           0 max           0 min
Histogram: 1 0 0 0 0 0 0 0 0 0
Neighs:             78 ave          78 max          78 min
Histogram: 1 0 0 0 0 0 0 0 0 0

Total # of neighbors = 78
Ave neighs/atom = 6
Neighbor list builds = 0
Dangerous builds = 0
Setting up cg style minimization ...
  Unit style    : metal
  Current step  : 0
Per MPI rank memory allocation (min/avg/max) = 4.295 | 4.295 | 4.295 Mbytes
   Step         TotEng        Atoms        Volume    
         0  -19.690324942749         13  125000
        50  -41.732152636444         13  125000
Loop time of 0.000953612 on 1 procs for 50 steps with 13 atoms

43.9% CPU use with 1 MPI tasks x no OpenMP threads

Minimization stats:
  Stopping criterion = energy tolerance
  Energy initial, next-to-last, final = 
     -19.6903249427489  -41.7321522940528  -41.7321526364442
  Force two-norm initial, final = 90.669512 0.0018896054
  Force max component initial, final = 39.788859 0.00066951997
  Final line search alpha, max atom move = 1 0.00066951997
  Iterations, force evaluations = 50 88

MPI task timing breakdown:
Section |  min time  |  avg time  |  max time  |%varavg| %total
---------------------------------------------------------------
Pair    | 0.00061969 | 0.00061969 | 0.00061969 |   0.0 | 64.98
Neigh   | 4.443e-06  | 4.443e-06  | 4.443e-06  |   0.0 |  0.47
Comm    | 0.00014169 | 0.00014169 | 0.00014169 |   0.0 | 14.86
Output  | 0          | 0          | 0          |   0.0 |  0.00
Modify  | 0          | 0          | 0          |   0.0 |  0.00
Other   |            | 0.0001878  |            |       | 19.69

Nlocal:             13 ave          13 max          13 min
Histogram: 1 0 0 0 0 0 0 0 0 0
Nghost:              0 ave           0 max           0 min
Histogram: 1 0 0 0 0 0 0 0 0 0
Neighs:             78 ave          78 max          78 min
Histogram: 1 0 0 0 0 0 0 0 0 0

Total # of neighbors = 78
Ave neighs/atom = 6
Neighbor list builds = 1
Dangerous builds = 0
System init for write_data ...
   Step         TotEng        Atoms        Volume    
        50  -41.732152636444         13  125000
Loop time of 8.355e-06 on 1 procs for 0 steps with 13 atoms

155.6% CPU use with 1 MPI tasks x no OpenMP threads

MPI task timing breakdown:
Section |  min time  |  avg time  |  max time  |%varavg| %total
---------------------------------------------------------------
Pair    | 0          | 0          | 0          |   0.0 |  0.00
Neigh   | 0          | 0          | 0          |   0.0 |  0.00
Comm    | 0          | 0          | 0          |   0.0 |  0.00
Output  | 0          | 0          | 0          |   0.0 |  0.00
Modify  | 0          | 0          | 0          |   0.0 |  0.00
Other   |            | 8.355e-06  |            |       |100.00

Nlocal:             13 ave          13 max          13 min
Histogram: 1 0 0 0 0 0 0 0 0 0
Nghost:              0 ave           0 max           0 min
Histogram: 1 0 0 0 0 0 0 0 0 0
Neighs:             78 ave          78 max          78 min
Histogram: 1 0 0 0 0 0 0 0 0 0

Total # of neighbors = 78
Ave neighs/atom = 6
Neighbor list builds = 0
Dangerous builds = 0
Reading data file ...
  orthogonal box = (0 0 0) to (50 50 50)
  1 by 1 by 1 MPI processor grid
  reading atoms ...
  13 atoms
  read_data CPU = 0.000 seconds
WARNING: No fixes with time integration, atoms won't move (../verlet.cpp:60)
Neighbor list info ...
  update every 1 steps, delay 0 steps, check yes
  max neighbors/atom: 5000, page size: 100000
  master list distance cutoff = 13.999
  ghost atom cutoff = 13.999
  binsize = 6.9995, bins = 8 8 8
  1 neighbor lists, perpetual/occasional/extra = 1 0 0
  (1) pair eam, perpetual
      attributes: half, newton on
      pair build: half/bin/atomonly/newton
      stencil: half/bin/3d
      bin: standard
Setting up Verlet run ...
  Unit style    : metal
  Current step  : 0
  Time step     : 0.001
Per MPI rank memory allocation (min/avg/max) = 3.17 | 3.17 | 3.17 Mbytes
   Step         TotEng        Atoms        Volume    
         0  -30.818353627945         13  125000
Loop time of 1.0469e-05 on 1 procs for 0 steps with 13 atoms

66.9% CPU use with 1 MPI tasks x no OpenMP threads

MPI task timing breakdown:
Section |  min time  |  avg time  |  max time  |%varavg| %total
---------------------------------------------------------------
Pair    | 0          | 0          | 0          |   0.0 |  0.00
Neigh   | 0          | 0          | 0          |   0.0 |  0.00
Comm    | 0          | 0          | 0          |   0.0 |  0.00
Output  | 0          | 0          | 0          |   0.0 |  0.00
Modify  | 0          | 0          | 0          |   0.0 |  0.00
Other   |            | 1.047e-05  |            |       |100.00

Nlocal:             13 ave          13 max          13 min
Histogram: 1 0 0 0 0 0 0 0 0 0
Nghost:              0 ave           0 max           0 min
Histogram: 1 0 0 0 0 0 0 0 0 0
Neighs:             78 ave          78 max          78 min
Histogram: 1 0 0 0 0 0 0 0 0 0

Total # of neighbors = 78
Ave neighs/atom = 6
Neighbor list builds = 0
Dangerous builds = 0
Setting up cg style minimization ...
  Unit style    : metal
  Current step  : 0
Per MPI rank memory allocation (min/avg/max) = 4.295 | 4.295 | 4.295 Mbytes
   Step         TotEng        Atoms        Volume    
         0  -30.818353627945         13  125000
        50  -41.732152574005         13  125000
Loop time of 0.00127116 on 1 procs for 50 steps with 13 atoms

45.1% CPU use with 1 MPI tasks x no OpenMP threads

Minimization stats:
  Stopping criterion = energy tolerance
  Energy initial, next-to-last, final = 
     -30.8183536279452  -41.7321522337087   -41.732152574005
  Force two-norm initial, final = 45.515605 0.0019533985
  Force max component initial, final = 15.517578 0.00072239784
  Final line search alpha, max atom move = 1 0.00072239784
  Iterations, force evaluations = 50 83

MPI task timing breakdown:
Section |  min time  |  avg time  |  max time  |%varavg| %total
---------------------------------------------------------------
Pair    | 0.00083609 | 0.00083609 | 0.00083609 |   0.0 | 65.77
Neigh   | 1.2764e-05 | 1.2764e-05 | 1.2764e-05 |   0.0 |  1.00
Comm    | 0.00017643 | 0.00017643 | 0.00017643 |   0.0 | 13.88
Output  | 0          | 0          | 0          |   0.0 |  0.00
Modify  | 0          | 0          | 0          |   0.0 |  0.00
Other   |            | 0.0002459  |            |       | 19.34

Nlocal:             13 ave          13 max          13 min
Histogram: 1 0 0 0 0 0 0 0 0 0
Nghost:              0 ave           0 max           0 min
Histogram: 1 0 0 0 0 0 0 0 0 0
Neighs:             78 ave          78 max          78 min
Histogram: 1 0 0 0 0 0 0 0 0 0

Total # of neighbors = 78
Ave neighs/atom = 6
Neighbor list builds = 2
Dangerous builds = 0
System init for write_data ...
   Step         TotEng        Atoms        Volume    
        50  -41.732152574005         13  125000
Loop time of 9.167e-06 on 1 procs for 0 steps with 13 atoms

98.2% CPU use with 1 MPI tasks x no OpenMP threads

MPI task timing breakdown:
Section |  min time  |  avg time  |  max time  |%varavg| %total
---------------------------------------------------------------
Pair    | 0          | 0          | 0          |   0.0 |  0.00
Neigh   | 0          | 0          | 0          |   0.0 |  0.00
Comm    | 0          | 0          | 0          |   0.0 |  0.00
Output  | 0          | 0          | 0          |   0.0 |  0.00
Modify  | 0          | 0          | 0          |   0.0 |  0.00
Other   |            | 9.167e-06  |            |       |100.00

Nlocal:             13 ave          13 max          13 min
Histogram: 1 0 0 0 0 0 0 0 0 0
Nghost:              0 ave           0 max           0 min
Histogram: 1 0 0 0 0 0 0 0 0 0
Neighs:             78 ave          78 max          78 min
Histogram: 1 0 0 0 0 0 0 0 0 0

Total # of neighbors = 78
Ave neighs/atom = 6
Neighbor list builds = 0
Dangerous builds = 0
Reading data file ...
  orthogonal box = (0 0 0) to (50 50 50)
  1 by 1 by 1 MPI processor grid
  reading atoms ...
  13 atoms
  read_data CPU = 0.000 seconds
WARNING: No fixes with time integration, atoms won't move (../verlet.cpp:60)
Neighbor list info ...
  update every 1 steps, delay 0 steps, check yes
  max neighbors/atom: 5000, page size: 100000
  master list distance cutoff = 13.999
  ghost atom cutoff = 13.999
  binsize = 6.9995, bins = 8 8 8
  1 neighbor lists, perpetual/occasional/extra = 1 0 0
  (1) pair eam, perpetual
      attributes: half, newton on
      pair build: half/bin/atomonly/newton
      stencil: half/bin/3d
      bin: standard
Setting up Verlet run ...
  Unit style    : metal
  Current step  : 0
  Time step     : 0.001
Per MPI rank memory allocation (min/avg/max) = 3.17 | 3.17 | 3.17 Mbytes
   Step         TotEng        Atoms        Volume    
         0  -31.890484880252         13  125000
Loop time of 8.855e-06 on 1 procs for 0 steps with 13 atoms

56.5% CPU use with 1 MPI tasks x no OpenMP threads

MPI task timing breakdown:
Section |  min time  |  avg time  |  max time  |%varavg| %total
---------------------------------------------------------------
Pair    | 0          | 0          | 0          |   0.0 |  0.00
Neigh   | 0          | 0          | 0          |   0.0 |  0.00
Comm    | 0          | 0          | 0          |   0.0 |  0.00
Output  | 0          | 0          | 0          |   0.0 |  0.00
Modify  | 0          | 0          | 0          |   0.0 |  0.00
Other   |            | 8.855e-06  |            |       |100.00

Nlocal:             13 ave          13 max          13 min
Histogram: 1 0 0 0 0 0 0 0 0 0
Nghost:              0 ave           0 max           0 min
Histogram: 1 0 0 0 0 0 0 0 0 0
Neighs:             78 ave          78 max          78 min
Histogram: 1 0 0 0 0 0 0 0 0 0

Total # of neighbors = 78
Ave neighs/atom = 6
Neighbor list builds = 0
Dangerous builds = 0
Setting up cg style minimization ...
  Unit style    : metal
  Current step  : 0
Per MPI rank memory allocation (min/avg/max) = 4.295 | 4.295 | 4.295 Mbytes
   Step         TotEng        Atoms        Volume    
         0  -31.890484880252         13  125000
        50  -41.732152694039         13  125000
Loop time of 0.00101931 on 1 procs for 50 steps with 13 atoms

99.8% CPU use with 1 MPI tasks x no OpenMP threads

Minimization stats:
  Stopping criterion = energy tolerance
  Energy initial, next-to-last, final = 
     -31.8904848802515  -41.7321523104909   -41.732152694039
  Force two-norm initial, final = 33.98581 0.0014491252
  Force max component initial, final = 18.935082 0.00063212458
  Final line search alpha, max atom move = 1 0.00063212458
  Iterations, force evaluations = 50 87

MPI task timing breakdown:
Section |  min time  |  avg time  |  max time  |%varavg| %total
---------------------------------------------------------------
Pair    | 0.00065458 | 0.00065458 | 0.00065458 |   0.0 | 64.22
Neigh   | 5.198e-06  | 5.198e-06  | 5.198e-06  |   0.0 |  0.51
Comm    | 0.00014561 | 0.00014561 | 0.00014561 |   0.0 | 14.29
Output  | 0          | 0          | 0          |   0.0 |  0.00
Modify  | 0          | 0          | 0          |   0.0 |  0.00
Other   |            | 0.0002139  |            |       | 20.99

Nlocal:             13 ave          13 max          13 min
Histogram: 1 0 0 0 0 0 0 0 0 0
Nghost:              0 ave           0 max           0 min
Histogram: 1 0 0 0 0 0 0 0 0 0
Neighs:             78 ave          78 max          78 min
Histogram: 1 0 0 0 0 0 0 0 0 0

Total # of neighbors = 78
Ave neighs/atom = 6
Neighbor list builds = 1
Dangerous builds = 0
System init for write_data ...
   Step         TotEng        Atoms        Volume    
        50  -41.732152694039         13  125000
Loop time of 8.631e-06 on 1 procs for 0 steps with 13 atoms

162.2% CPU use with 1 MPI tasks x no OpenMP threads

MPI task timing breakdown:
Section |  min time  |  avg time  |  max time  |%varavg| %total
---------------------------------------------------------------
Pair    | 0          | 0          | 0          |   0.0 |  0.00
Neigh   | 0          | 0          | 0          |   0.0 |  0.00
Comm    | 0          | 0          | 0          |   0.0 |  0.00
Output  | 0          | 0          | 0          |   0.0 |  0.00
Modify  | 0          | 0          | 0          |   0.0 |  0.00
Other   |            | 8.631e-06  |            |       |100.00

Nlocal:             13 ave          13 max          13 min
Histogram: 1 0 0 0 0 0 0 0 0 0
Nghost:              0 ave           0 max           0 min
Histogram: 1 0 0 0 0 0 0 0 0 0
Neighs:             78 ave          78 max          78 min
Histogram: 1 0 0 0 0 0 0 0 0 0

Total # of neighbors = 78
Ave neighs/atom = 6
Neighbor list builds = 0
Dangerous builds = 0
Reading data file ...
  orthogonal box = (0 0 0) to (50 50 50)
  1 by 1 by 1 MPI processor grid
  reading atoms ...
  13 atoms
  read_data CPU = 0.000 seconds
WARNING: No fixes with time integration, atoms won't move (../verlet.cpp:60)
Neighbor list info ...
  update every 1 steps, delay 0 steps, check yes
  max neighbors/atom: 5000, page size: 100000
  master list distance cutoff = 13.999
  ghost atom cutoff = 13.999
  binsize = 6.9995, bins = 8 8 8
  1 neighbor lists, perpetual/occasional/extra = 1 0 0
  (1) pair eam, perpetual
      attributes: half, newton on
      pair build: half/bin/atomonly/newton
      stencil: half/bin/3d
      bin: standard
Setting up Verlet run ...
  Unit style    : metal
  Current step  : 0
  Time step     : 0.001
Per MPI rank memory allocation (min/avg/max) = 3.17 | 3.17 | 3.17 Mbytes
   Step         TotEng        Atoms        Volume    
         0  -27.88826116534         13  125000
Loop time of 8.594e-06 on 1 procs for 0 steps with 13 atoms

58.2% CPU use with 1 MPI tasks x no OpenMP threads

MPI task timing breakdown:
Section |  min time  |  avg time  |  max time  |%varavg| %total
---------------------------------------------------------------
Pair    | 0          | 0          | 0          |   0.0 |  0.00
Neigh   | 0          | 0          | 0          |   0.0 |  0.00
Comm    | 0          | 0          | 0          |   0.0 |  0.00
Output  | 0          | 0          | 0          |   0.0 |  0.00
Modify  | 0          | 0          | 0          |   0.0 |  0.00
Other   |            | 8.594e-06  |            |       |100.00

Nlocal:             13 ave          13 max          13 min
Histogram: 1 0 0 0 0 0 0 0 0 0
Nghost:              0 ave           0 max           0 min
Histogram: 1 0 0 0 0 0 0 0 0 0
Neighs:             78 ave          78 max          78 min
Histogram: 1 0 0 0 0 0 0 0 0 0

Total # of neighbors = 78
Ave neighs/atom = 6
Neighbor list builds = 0
Dangerous builds = 0
Setting up cg style minimization ...
  Unit style    : metal
  Current step  : 0
Per MPI rank memory allocation (min/avg/max) = 4.295 | 4.295 | 4.295 Mbytes
   Step         TotEng        Atoms        Volume    
         0  -27.88826116534         13  125000
        52  -41.564146287093         13  125000
Loop time of 0.000995722 on 1 procs for 52 steps with 13 atoms

45.8% CPU use with 1 MPI tasks x no OpenMP threads

Minimization stats:
  Stopping criterion = energy tolerance
  Energy initial, next-to-last, final = 
     -27.8882611653397   -41.564146019179  -41.5641462870933
  Force two-norm initial, final = 70.76353 0.0015532722
  Force max component initial, final = 31.373142 0.00054835411
  Final line search alpha, max atom move = 1 0.00054835411
  Iterations, force evaluations = 52 92

MPI task timing breakdown:
Section |  min time  |  avg time  |  max time  |%varavg| %total
---------------------------------------------------------------
Pair    | 0.00063272 | 0.00063272 | 0.00063272 |   0.0 | 63.54
Neigh   | 4.673e-06  | 4.673e-06  | 4.673e-06  |   0.0 |  0.47
Comm    | 0.00016475 | 0.00016475 | 0.00016475 |   0.0 | 16.55
Output  | 0          | 0          | 0          |   0.0 |  0.00
Modify  | 0          | 0          | 0          |   0.0 |  0.00
Other   |            | 0.0001936  |            |       | 19.44

Nlocal:             13 ave          13 max          13 min
Histogram: 1 0 0 0 0 0 0 0 0 0
Nghost:              0 ave           0 max           0 min
Histogram: 1 0 0 0 0 0 0 0 0 0
Neighs:             78 ave          78 max          78 min
Histogram: 1 0 0 0 0 0 0 0 0 0

Total # of neighbors = 78
Ave neighs/atom = 6
Neighbor list builds = 1
Dangerous builds = 0
System init for write_data ...
   Step         TotEng        Atoms        Volume    
        52  -41.564146287093         13  125000
Loop time of 1.069e-05 on 1 procs for 0 steps with 13 atoms

168.4% CPU use with 1 MPI tasks x no OpenMP threads

MPI task timing breakdown:
Section |  min time  |  avg time  |  max time  |%varavg| %total
---------------------------------------------------------------
Pair    | 0          | 0          | 0          |   0.0 |  0.00
Neigh   | 0          | 0          | 0          |   0.0 |  0.00
Comm    | 0          | 0          | 0          |   0.0 |  0.00
Output  | 0          | 0          | 0          |   0.0 |  0.00
Modify  | 0          | 0          | 0          |   0.0 |  0.00
Other   |            | 1.069e-05  |            |       |100.00

Nlocal:             13 ave          13 max          13 min
Histogram: 1 0 0 0 0 0 0 0 0 0
Nghost:              0 ave           0 max           0 min
Histogram: 1 0 0 0 0 0 0 0 0 0
Neighs:             78 ave          78 max          78 min
Histogram: 1 0 0 0 0 0 0 0 0 0

Total # of neighbors = 78
Ave neighs/atom = 6
Neighbor list builds = 0
Dangerous builds = 0
Reading data file ...
  orthogonal box = (0 0 0) to (50 50 50)
  1 by 1 by 1 MPI processor grid
  reading atoms ...
  13 atoms
  read_data CPU = 0.000 seconds
WARNING: No fixes with time integration, atoms won't move (../verlet.cpp:60)
Neighbor list info ...
  update every 1 steps, delay 0 steps, check yes
  max neighbors/atom: 5000, page size: 100000
  master list distance cutoff = 13.999
  ghost atom cutoff = 13.999
  binsize = 6.9995, bins = 8 8 8
  1 neighbor lists, perpetual/occasional/extra = 1 0 0
  (1) pair eam, perpetual
      attributes: half, newton on
      pair build: half/bin/atomonly/newton
      stencil: half/bin/3d
      bin: standard
Setting up Verlet run ...
  Unit style    : metal
  Current step  : 0
  Time step     : 0.001
Per MPI rank memory allocation (min/avg/max) = 3.17 | 3.17 | 3.17 Mbytes
   Step         TotEng        Atoms        Volume    
         0  -28.107781700143         13  125000
Loop time of 9.53e-06 on 1 procs for 0 steps with 13 atoms

63.0% CPU use with 1 MPI tasks x no OpenMP threads

MPI task timing breakdown:
Section |  min time  |  avg time  |  max time  |%varavg| %total
---------------------------------------------------------------
Pair    | 0          | 0          | 0          |   0.0 |  0.00
Neigh   | 0          | 0          | 0          |   0.0 |  0.00
Comm    | 0          | 0          | 0          |   0.0 |  0.00
Output  | 0          | 0          | 0          |   0.0 |  0.00
Modify  | 0          | 0          | 0          |   0.0 |  0.00
Other   |            | 9.53e-06   |            |       |100.00

Nlocal:             13 ave          13 max          13 min
Histogram: 1 0 0 0 0 0 0 0 0 0
Nghost:              0 ave           0 max           0 min
Histogram: 1 0 0 0 0 0 0 0 0 0
Neighs:             78 ave          78 max          78 min
Histogram: 1 0 0 0 0 0 0 0 0 0

Total # of neighbors = 78
Ave neighs/atom = 6
Neighbor list builds = 0
Dangerous builds = 0
Setting up cg style minimization ...
  Unit style    : metal
  Current step  : 0
Per MPI rank memory allocation (min/avg/max) = 4.295 | 4.295 | 4.295 Mbytes
   Step         TotEng        Atoms        Volume    
         0  -28.107781700143         13  125000
        79  -41.657982360022         13  125000
Loop time of 0.00153003 on 1 procs for 79 steps with 13 atoms

47.0% CPU use with 1 MPI tasks x no OpenMP threads

Minimization stats:
  Stopping criterion = energy tolerance
  Energy initial, next-to-last, final = 
     -28.1077817001431  -41.6579820195607   -41.657982360022
  Force two-norm initial, final = 43.875183 0.0021416096
  Force max component initial, final = 18.605367 0.00066684925
  Final line search alpha, max atom move = 1 0.00066684925
  Iterations, force evaluations = 79 139

MPI task timing breakdown:
Section |  min time  |  avg time  |  max time  |%varavg| %total
---------------------------------------------------------------
Pair    | 0.001      | 0.001      | 0.001      |   0.0 | 65.36
Neigh   | 9.402e-06  | 9.402e-06  | 9.402e-06  |   0.0 |  0.61
Comm    | 0.00022554 | 0.00022554 | 0.00022554 |   0.0 | 14.74
Output  | 0          | 0          | 0          |   0.0 |  0.00
Modify  | 0          | 0          | 0          |   0.0 |  0.00
Other   |            | 0.0002951  |            |       | 19.29

Nlocal:             13 ave          13 max          13 min
Histogram: 1 0 0 0 0 0 0 0 0 0
Nghost:              0 ave           0 max           0 min
Histogram: 1 0 0 0 0 0 0 0 0 0
Neighs:             78 ave          78 max          78 min
Histogram: 1 0 0 0 0 0 0 0 0 0

Total # of neighbors = 78
Ave neighs/atom = 6
Neighbor list builds = 2
Dangerous builds = 0
System init for write_data ...
   Step         TotEng        Atoms        Volume    
        79  -41.657982360022         13  125000
Loop time of 8.916e-06 on 1 procs for 0 steps with 13 atoms

123.4% CPU use with 1 MPI tasks x no OpenMP threads

MPI task timing breakdown:
Section |  min time  |  avg time  |  max time  |%varavg| %total
---------------------------------------------------------------
Pair    | 0          | 0          | 0          |   0.0 |  0.00
Neigh   | 0          | 0          | 0          |   0.0 |  0.00
Comm    | 0          | 0          | 0          |   0.0 |  0.00
Output  | 0          | 0          | 0          |   0.0 |  0.00
Modify  | 0          | 0          | 0          |   0.0 |  0.00
Other   |            | 8.916e-06  |            |       |100.00

Nlocal:             13 ave          13 max          13 min
Histogram: 1 0 0 0 0 0 0 0 0 0
Nghost:              0 ave           0 max           0 min
Histogram: 1 0 0 0 0 0 0 0 0 0
Neighs:             78 ave          78 max          78 min
Histogram: 1 0 0 0 0 0 0 0 0 0

Total # of neighbors = 78
Ave neighs/atom = 6
Neighbor list builds = 0
Dangerous builds = 0
Reading data file ...
  orthogonal box = (0 0 0) to (50 50 50)
  1 by 1 by 1 MPI processor grid
  reading atoms ...
  13 atoms
  read_data CPU = 0.000 seconds
WARNING: No fixes with time integration, atoms won't move (../verlet.cpp:60)
Neighbor list info ...
  update every 1 steps, delay 0 steps, check yes
  max neighbors/atom: 5000, page size: 100000
  master list distance cutoff = 13.999
  ghost atom cutoff = 13.999
  binsize = 6.9995, bins = 8 8 8
  1 neighbor lists, perpetual/occasional/extra = 1 0 0
  (1) pair eam, perpetual
      attributes: half, newton on
      pair build: half/bin/atomonly/newton
      stencil: half/bin/3d
      bin: standard
Setting up Verlet run ...
  Unit style    : metal
  Current step  : 0
  Time step     : 0.001
Per MPI rank memory allocation (min/avg/max) = 3.17 | 3.17 | 3.17 Mbytes
   Step         TotEng        Atoms        Volume    
         0  -29.785334991992         13  125000
Loop time of 1.4625e-05 on 1 procs for 0 steps with 13 atoms

41.0% CPU use with 1 MPI tasks x no OpenMP threads

MPI task timing breakdown:
Section |  min time  |  avg time  |  max time  |%varavg| %total
---------------------------------------------------------------
Pair    | 0          | 0          | 0          |   0.0 |  0.00
Neigh   | 0          | 0          | 0          |   0.0 |  0.00
Comm    | 0          | 0          | 0          |   0.0 |  0.00
Output  | 0          | 0          | 0          |   0.0 |  0.00
Modify  | 0          | 0          | 0          |   0.0 |  0.00
Other   |            | 1.462e-05  |            |       |100.00

Nlocal:             13 ave          13 max          13 min
Histogram: 1 0 0 0 0 0 0 0 0 0
Nghost:              0 ave           0 max           0 min
Histogram: 1 0 0 0 0 0 0 0 0 0
Neighs:             78 ave          78 max          78 min
Histogram: 1 0 0 0 0 0 0 0 0 0

Total # of neighbors = 78
Ave neighs/atom = 6
Neighbor list builds = 0
Dangerous builds = 0
Setting up cg style minimization ...
  Unit style    : metal
  Current step  : 0
Per MPI rank memory allocation (min/avg/max) = 4.295 | 4.295 | 4.295 Mbytes
   Step         TotEng        Atoms        Volume    
         0  -29.785334991992         13  125000
        78  -41.762475445969         13  125000
Loop time of 0.00252128 on 1 procs for 78 steps with 13 atoms

99.6% CPU use with 1 MPI tasks x no OpenMP threads

Minimization stats:
  Stopping criterion = energy tolerance
  Energy initial, next-to-last, final = 
     -29.7853349919915  -41.7624751952812  -41.7624754459693
  Force two-norm initial, final = 34.34627 0.0014490263
  Force max component initial, final = 19.974478 0.00054149584
  Final line search alpha, max atom move = 1 0.00054149584
  Iterations, force evaluations = 78 135

MPI task timing breakdown:
Section |  min time  |  avg time  |  max time  |%varavg| %total
---------------------------------------------------------------
Pair    | 0.0016859  | 0.0016859  | 0.0016859  |   0.0 | 66.87
Neigh   | 1.5277e-05 | 1.5277e-05 | 1.5277e-05 |   0.0 |  0.61
Comm    | 0.00034279 | 0.00034279 | 0.00034279 |   0.0 | 13.60
Output  | 0          | 0          | 0          |   0.0 |  0.00
Modify  | 0          | 0          | 0          |   0.0 |  0.00
Other   |            | 0.0004773  |            |       | 18.93

Nlocal:             13 ave          13 max          13 min
Histogram: 1 0 0 0 0 0 0 0 0 0
Nghost:              0 ave           0 max           0 min
Histogram: 1 0 0 0 0 0 0 0 0 0
Neighs:             78 ave          78 max          78 min
Histogram: 1 0 0 0 0 0 0 0 0 0

Total # of neighbors = 78
Ave neighs/atom = 6
Neighbor list builds = 2
Dangerous builds = 0
System init for write_data ...
   Step         TotEng        Atoms        Volume    
        78  -41.762475445969         13  125000
Loop time of 8.731e-06 on 1 procs for 0 steps with 13 atoms

183.3% CPU use with 1 MPI tasks x no OpenMP threads

MPI task timing breakdown:
Section |  min time  |  avg time  |  max time  |%varavg| %total
---------------------------------------------------------------
Pair    | 0          | 0          | 0          |   0.0 |  0.00
Neigh   | 0          | 0          | 0          |   0.0 |  0.00
Comm    | 0          | 0          | 0          |   0.0 |  0.00
Output  | 0          | 0          | 0          |   0.0 |  0.00
Modify  | 0          | 0          | 0          |   0.0 |  0.00
Other   |            | 8.731e-06  |            |       |100.00

Nlocal:             13 ave          13 max          13 min
Histogram: 1 0 0 0 0 0 0 0 0 0
Nghost:              0 ave           0 max           0 min
Histogram: 1 0 0 0 0 0 0 0 0 0
Neighs:             78 ave          78 max          78 min
Histogram: 1 0 0 0 0 0 0 0 0 0

Total # of neighbors = 78
Ave neighs/atom = 6
Neighbor list builds = 0
Dangerous builds = 0
Reading data file ...
  orthogonal box = (0 0 0) to (50 50 50)
  1 by 1 by 1 MPI processor grid
  reading atoms ...
  13 atoms
  read_data CPU = 0.000 seconds
WARNING: No fixes with time integration, atoms won't move (../verlet.cpp:60)
Neighbor list info ...
  update every 1 steps, delay 0 steps, check yes
  max neighbors/atom: 5000, page size: 100000
  master list distance cutoff = 13.999
  ghost atom cutoff = 13.999
  binsize = 6.9995, bins = 8 8 8
  1 neighbor lists, perpetual/occasional/extra = 1 0 0
  (1) pair eam, perpetual
      attributes: half, newton on
      pair build: half/bin/atomonly/newton
      stencil: half/bin/3d
      bin: standard
Setting up Verlet run ...
  Unit style    : metal
  Current step  : 0
  Time step     : 0.001
Per MPI rank memory allocation (min/avg/max) = 3.17 | 3.17 | 3.17 Mbytes
   Step         TotEng        Atoms        Volume    
         0  -20.858925423359         13  125000
Loop time of 1.0036e-05 on 1 procs for 0 steps with 13 atoms

59.8% CPU use with 1 MPI tasks x no OpenMP threads

MPI task timing breakdown:
Section |  min time  |  avg time  |  max time  |%varavg| %total
---------------------------------------------------------------
Pair    | 0          | 0          | 0          |   0.0 |  0.00
Neigh   | 0          | 0          | 0          |   0.0 |  0.00
Comm    | 0          | 0          | 0          |   0.0 |  0.00
Output  | 0          | 0          | 0          |   0.0 |  0.00
Modify  | 0          | 0          | 0          |   0.0 |  0.00
Other   |            | 1.004e-05  |            |       |100.00

Nlocal:             13 ave          13 max          13 min
Histogram: 1 0 0 0 0 0 0 0 0 0
Nghost:              0 ave           0 max           0 min
Histogram: 1 0 0 0 0 0 0 0 0 0
Neighs:             78 ave          78 max          78 min
Histogram: 1 0 0 0 0 0 0 0 0 0

Total # of neighbors = 78
Ave neighs/atom = 6
Neighbor list builds = 0
Dangerous builds = 0
Setting up cg style minimization ...
  Unit style    : metal
  Current step  : 0
Per MPI rank memory allocation (min/avg/max) = 4.295 | 4.295 | 4.295 Mbytes
   Step         TotEng        Atoms        Volume    
         0  -20.858925423359         13  125000
        58  -41.56414590088         13  125000
Loop time of 0.00174137 on 1 procs for 58 steps with 13 atoms

99.9% CPU use with 1 MPI tasks x no OpenMP threads

Minimization stats:
  Stopping criterion = energy tolerance
  Energy initial, next-to-last, final = 
     -20.8589254233593  -41.5641455851685    -41.56414590088
  Force two-norm initial, final = 78.932309 0.001950178
  Force max component initial, final = 40.980836 0.00085530374
  Final line search alpha, max atom move = 1 0.00085530374
  Iterations, force evaluations = 58 101

MPI task timing breakdown:
Section |  min time  |  avg time  |  max time  |%varavg| %total
---------------------------------------------------------------
Pair    | 0.0011742  | 0.0011742  | 0.0011742  |   0.0 | 67.43
Neigh   | 7.645e-06  | 7.645e-06  | 7.645e-06  |   0.0 |  0.44
Comm    | 0.00023453 | 0.00023453 | 0.00023453 |   0.0 | 13.47
Output  | 0          | 0          | 0          |   0.0 |  0.00
Modify  | 0          | 0          | 0          |   0.0 |  0.00
Other   |            | 0.000325   |            |       | 18.66

Nlocal:             13 ave          13 max          13 min
Histogram: 1 0 0 0 0 0 0 0 0 0
Nghost:              0 ave           0 max           0 min
Histogram: 1 0 0 0 0 0 0 0 0 0
Neighs:             78 ave          78 max          78 min
Histogram: 1 0 0 0 0 0 0 0 0 0

Total # of neighbors = 78
Ave neighs/atom = 6
Neighbor list builds = 1
Dangerous builds = 0
System init for write_data ...
   Step         TotEng        Atoms        Volume    
        58  -41.56414590088         13  125000
Loop time of 1.058e-05 on 1 procs for 0 steps with 13 atoms

349.7% CPU use with 1 MPI tasks x no OpenMP threads

MPI task timing breakdown:
Section |  min time  |  avg time  |  max time  |%varavg| %total
---------------------------------------------------------------
Pair    | 0          | 0          | 0          |   0.0 |  0.00
Neigh   | 0          | 0          | 0          |   0.0 |  0.00
Comm    | 0          | 0          | 0          |   0.0 |  0.00
Output  | 0          | 0          | 0          |   0.0 |  0.00
Modify  | 0          | 0          | 0          |   0.0 |  0.00
Other   |            | 1.058e-05  |            |       |100.00

Nlocal:             13 ave          13 max          13 min
Histogram: 1 0 0 0 0 0 0 0 0 0
Nghost:              0 ave           0 max           0 min
Histogram: 1 0 0 0 0 0 0 0 0 0
Neighs:             78 ave          78 max          78 min
Histogram: 1 0 0 0 0 0 0 0 0 0

Total # of neighbors = 78
Ave neighs/atom = 6
Neighbor list builds = 0
Dangerous builds = 0
Reading data file ...
  orthogonal box = (0 0 0) to (50 50 50)
  1 by 1 by 1 MPI processor grid
  reading atoms ...
  13 atoms
  read_data CPU = 0.000 seconds
WARNING: No fixes with time integration, atoms won't move (../verlet.cpp:60)
Neighbor list info ...
  update every 1 steps, delay 0 steps, check yes
  max neighbors/atom: 5000, page size: 100000
  master list distance cutoff = 13.999
  ghost atom cutoff = 13.999
  binsize = 6.9995, bins = 8 8 8
  1 neighbor lists, perpetual/occasional/extra = 1 0 0
  (1) pair eam, perpetual
      attributes: half, newton on
      pair build: half/bin/atomonly/newton
      stencil: half/bin/3d
      bin: standard
Setting up Verlet run ...
  Unit style    : metal
  Current step  : 0
  Time step     : 0.001
Per MPI rank memory allocation (min/avg/max) = 3.17 | 3.17 | 3.17 Mbytes
   Step         TotEng        Atoms        Volume    
         0  -18.415820150023         13  125000
Loop time of 8.995e-06 on 1 procs for 0 steps with 13 atoms

0.0% CPU use with 1 MPI tasks x no OpenMP threads

MPI task timing breakdown:
Section |  min time  |  avg time  |  max time  |%varavg| %total
---------------------------------------------------------------
Pair    | 0          | 0          | 0          |   0.0 |  0.00
Neigh   | 0          | 0          | 0          |   0.0 |  0.00
Comm    | 0          | 0          | 0          |   0.0 |  0.00
Output  | 0          | 0          | 0          |   0.0 |  0.00
Modify  | 0          | 0          | 0          |   0.0 |  0.00
Other   |            | 8.995e-06  |            |       |100.00

Nlocal:             13 ave          13 max          13 min
Histogram: 1 0 0 0 0 0 0 0 0 0
Nghost:              0 ave           0 max           0 min
Histogram: 1 0 0 0 0 0 0 0 0 0
Neighs:             78 ave          78 max          78 min
Histogram: 1 0 0 0 0 0 0 0 0 0

Total # of neighbors = 78
Ave neighs/atom = 6
Neighbor list builds = 0
Dangerous builds = 0
Setting up cg style minimization ...
  Unit style    : metal
  Current step  : 0
Per MPI rank memory allocation (min/avg/max) = 4.295 | 4.295 | 4.295 Mbytes
   Step         TotEng        Atoms        Volume    
         0  -18.415820150023         13  125000
        39  -41.732152126283         13  125000
Loop time of 0.00070663 on 1 procs for 39 steps with 13 atoms

48.7% CPU use with 1 MPI tasks x no OpenMP threads

Minimization stats:
  Stopping criterion = energy tolerance
  Energy initial, next-to-last, final = 
     -18.4158201500233  -41.7321518237606  -41.7321521262828
  Force two-norm initial, final = 102.34108 0.001810802
  Force max component initial, final = 51.121675 0.00068358593
  Final line search alpha, max atom move = 1 0.00068358593
  Iterations, force evaluations = 39 63

MPI task timing breakdown:
Section |  min time  |  avg time  |  max time  |%varavg| %total
---------------------------------------------------------------
Pair    | 0.00045367 | 0.00045367 | 0.00045367 |   0.0 | 64.20
Neigh   | 4.34e-06   | 4.34e-06   | 4.34e-06   |   0.0 |  0.61
Comm    | 9.6298e-05 | 9.6298e-05 | 9.6298e-05 |   0.0 | 13.63
Output  | 0          | 0          | 0          |   0.0 |  0.00
Modify  | 0          | 0          | 0          |   0.0 |  0.00
Other   |            | 0.0001523  |            |       | 21.56

Nlocal:             13 ave          13 max          13 min
Histogram: 1 0 0 0 0 0 0 0 0 0
Nghost:              0 ave           0 max           0 min
Histogram: 1 0 0 0 0 0 0 0 0 0
Neighs:             78 ave          78 max          78 min
Histogram: 1 0 0 0 0 0 0 0 0 0

Total # of neighbors = 78
Ave neighs/atom = 6
Neighbor list builds = 1
Dangerous builds = 0
System init for write_data ...
   Step         TotEng        Atoms        Volume    
        39  -41.732152126283         13  125000
Loop time of 8.974e-06 on 1 procs for 0 steps with 13 atoms

78.0% CPU use with 1 MPI tasks x no OpenMP threads

MPI task timing breakdown:
Section |  min time  |  avg time  |  max time  |%varavg| %total
---------------------------------------------------------------
Pair    | 0          | 0          | 0          |   0.0 |  0.00
Neigh   | 0          | 0          | 0          |   0.0 |  0.00
Comm    | 0          | 0          | 0          |   0.0 |  0.00
Output  | 0          | 0          | 0          |   0.0 |  0.00
Modify  | 0          | 0          | 0          |   0.0 |  0.00
Other   |            | 8.974e-06  |            |       |100.00

Nlocal:             13 ave          13 max          13 min
Histogram: 1 0 0 0 0 0 0 0 0 0
Nghost:              0 ave           0 max           0 min
Histogram: 1 0 0 0 0 0 0 0 0 0
Neighs:             78 ave          78 max          78 min
Histogram: 1 0 0 0 0 0 0 0 0 0

Total # of neighbors = 78
Ave neighs/atom = 6
Neighbor list builds = 0
Dangerous builds = 0
Reading data file ...
  orthogonal box = (0 0 0) to (50 50 50)
  1 by 1 by 1 MPI processor grid
  reading atoms ...
  13 atoms
  read_data CPU = 0.000 seconds
WARNING: No fixes with time integration, atoms won't move (../verlet.cpp:60)
Neighbor list info ...
  update every 1 steps, delay 0 steps, check yes
  max neighbors/atom: 5000, page size: 100000
  master list distance cutoff = 13.999
  ghost atom cutoff = 13.999
  binsize = 6.9995, bins = 8 8 8
  1 neighbor lists, perpetual/occasional/extra = 1 0 0
  (1) pair eam, perpetual
      attributes: half, newton on
      pair build: half/bin/atomonly/newton
      stencil: half/bin/3d
      bin: standard
Setting up Verlet run ...
  Unit style    : metal
  Current step  : 0
  Time step     : 0.001
Per MPI rank memory allocation (min/avg/max) = 3.17 | 3.17 | 3.17 Mbytes
   Step         TotEng        Atoms        Volume    
         0  -26.300885734119         13  125000
Loop time of 8.5e-06 on 1 procs for 0 steps with 13 atoms

58.8% CPU use with 1 MPI tasks x no OpenMP threads

MPI task timing breakdown:
Section |  min time  |  avg time  |  max time  |%varavg| %total
---------------------------------------------------------------
Pair    | 0          | 0          | 0          |   0.0 |  0.00
Neigh   | 0          | 0          | 0          |   0.0 |  0.00
Comm    | 0          | 0          | 0          |   0.0 |  0.00
Output  | 0          | 0          | 0          |   0.0 |  0.00
Modify  | 0          | 0          | 0          |   0.0 |  0.00
Other   |            | 8.5e-06    |            |       |100.00

Nlocal:             13 ave          13 max          13 min
Histogram: 1 0 0 0 0 0 0 0 0 0
Nghost:              0 ave           0 max           0 min
Histogram: 1 0 0 0 0 0 0 0 0 0
Neighs:             78 ave          78 max          78 min
Histogram: 1 0 0 0 0 0 0 0 0 0

Total # of neighbors = 78
Ave neighs/atom = 6
Neighbor list builds = 0
Dangerous builds = 0
Setting up cg style minimization ...
  Unit style    : metal
  Current step  : 0
Per MPI rank memory allocation (min/avg/max) = 4.295 | 4.295 | 4.295 Mbytes
   Step         TotEng        Atoms        Volume    
         0  -26.300885734119         13  125000
        61  -41.783001744095         13  125000
Loop time of 0.0058194 on 1 procs for 61 steps with 13 atoms

31.0% CPU use with 1 MPI tasks x no OpenMP threads

Minimization stats:
  Stopping criterion = energy tolerance
  Energy initial, next-to-last, final = 
     -26.3008857341193  -41.7830014363708  -41.7830017440946
  Force two-norm initial, final = 38.629527 0.0022035873
  Force max component initial, final = 18.508166 0.00081981906
  Final line search alpha, max atom move = 1 0.00081981906
  Iterations, force evaluations = 61 102

MPI task timing breakdown:
Section |  min time  |  avg time  |  max time  |%varavg| %total
---------------------------------------------------------------
Pair    | 0.0052076  | 0.0052076  | 0.0052076  |   0.0 | 89.49
Neigh   | 1.5028e-05 | 1.5028e-05 | 1.5028e-05 |   0.0 |  0.26
Comm    | 0.00023963 | 0.00023963 | 0.00023963 |   0.0 |  4.12
Output  | 0          | 0          | 0          |   0.0 |  0.00
Modify  | 0          | 0          | 0          |   0.0 |  0.00
Other   |            | 0.0003571  |            |       |  6.14

Nlocal:             13 ave          13 max          13 min
Histogram: 1 0 0 0 0 0 0 0 0 0
Nghost:              0 ave           0 max           0 min
Histogram: 1 0 0 0 0 0 0 0 0 0
Neighs:             78 ave          78 max          78 min
Histogram: 1 0 0 0 0 0 0 0 0 0

Total # of neighbors = 78
Ave neighs/atom = 6
Neighbor list builds = 2
Dangerous builds = 0
System init for write_data ...
   Step         TotEng        Atoms        Volume    
        61  -41.783001744095         13  125000
Loop time of 1.0214e-05 on 1 procs for 0 steps with 13 atoms

372.0% CPU use with 1 MPI tasks x no OpenMP threads

MPI task timing breakdown:
Section |  min time  |  avg time  |  max time  |%varavg| %total
---------------------------------------------------------------
Pair    | 0          | 0          | 0          |   0.0 |  0.00
Neigh   | 0          | 0          | 0          |   0.0 |  0.00
Comm    | 0          | 0          | 0          |   0.0 |  0.00
Output  | 0          | 0          | 0          |   0.0 |  0.00
Modify  | 0          | 0          | 0          |   0.0 |  0.00
Other   |            | 1.021e-05  |            |       |100.00

Nlocal:             13 ave          13 max          13 min
Histogram: 1 0 0 0 0 0 0 0 0 0
Nghost:              0 ave           0 max           0 min
Histogram: 1 0 0 0 0 0 0 0 0 0
Neighs:             78 ave          78 max          78 min
Histogram: 1 0 0 0 0 0 0 0 0 0

Total # of neighbors = 78
Ave neighs/atom = 6
Neighbor list builds = 0
Dangerous builds = 0
Reading data file ...
  orthogonal box = (0 0 0) to (50 50 50)
  1 by 1 by 1 MPI processor grid
  reading atoms ...
  13 atoms
  read_data CPU = 0.000 seconds
WARNING: No fixes with time integration, atoms won't move (../verlet.cpp:60)
Neighbor list info ...
  update every 1 steps, delay 0 steps, check yes
  max neighbors/atom: 5000, page size: 100000
  master list distance cutoff = 13.999
  ghost atom cutoff = 13.999
  binsize = 6.9995, bins = 8 8 8
  1 neighbor lists, perpetual/occasional/extra = 1 0 0
  (1) pair eam, perpetual
      attributes: half, newton on
      pair build: half/bin/atomonly/newton
      stencil: half/bin/3d
      bin: standard
Setting up Verlet run ...
  Unit style    : metal
  Current step  : 0
  Time step     : 0.001
Per MPI rank memory allocation (min/avg/max) = 3.17 | 3.17 | 3.17 Mbytes
   Step         TotEng        Atoms        Volume    
         0  -23.831956278757         13  125000
Loop time of 7.579e-06 on 1 procs for 0 steps with 13 atoms

66.0% CPU use with 1 MPI tasks x no OpenMP threads

MPI task timing breakdown:
Section |  min time  |  avg time  |  max time  |%varavg| %total
---------------------------------------------------------------
Pair    | 0          | 0          | 0          |   0.0 |  0.00
Neigh   | 0          | 0          | 0          |   0.0 |  0.00
Comm    | 0          | 0          | 0          |   0.0 |  0.00
Output  | 0          | 0          | 0          |   0.0 |  0.00
Modify  | 0          | 0          | 0          |   0.0 |  0.00
Other   |            | 7.579e-06  |            |       |100.00

Nlocal:             13 ave          13 max          13 min
Histogram: 1 0 0 0 0 0 0 0 0 0
Nghost:              0 ave           0 max           0 min
Histogram: 1 0 0 0 0 0 0 0 0 0
Neighs:             78 ave          78 max          78 min
Histogram: 1 0 0 0 0 0 0 0 0 0

Total # of neighbors = 78
Ave neighs/atom = 6
Neighbor list builds = 0
Dangerous builds = 0
Setting up cg style minimization ...
  Unit style    : metal
  Current step  : 0
Per MPI rank memory allocation (min/avg/max) = 4.295 | 4.295 | 4.295 Mbytes
   Step         TotEng        Atoms        Volume    
         0  -23.831956278757         13  125000
        41  -41.564145524022         13  125000
Loop time of 0.00071184 on 1 procs for 41 steps with 13 atoms

61.4% CPU use with 1 MPI tasks x no OpenMP threads

Minimization stats:
  Stopping criterion = energy tolerance
  Energy initial, next-to-last, final = 
     -23.8319562787569  -41.5641451919821  -41.5641455240217
  Force two-norm initial, final = 60.61187 0.002193308
  Force max component initial, final = 27.09459 0.00067861561
  Final line search alpha, max atom move = 1 0.00067861561
  Iterations, force evaluations = 41 73

MPI task timing breakdown:
Section |  min time  |  avg time  |  max time  |%varavg| %total
---------------------------------------------------------------
Pair    | 0.00045745 | 0.00045745 | 0.00045745 |   0.0 | 64.26
Neigh   | 0          | 0          | 0          |   0.0 |  0.00
Comm    | 0.00010608 | 0.00010608 | 0.00010608 |   0.0 | 14.90
Output  | 0          | 0          | 0          |   0.0 |  0.00
Modify  | 0          | 0          | 0          |   0.0 |  0.00
Other   |            | 0.0001483  |            |       | 20.84

Nlocal:             13 ave          13 max          13 min
Histogram: 1 0 0 0 0 0 0 0 0 0
Nghost:              0 ave           0 max           0 min
Histogram: 1 0 0 0 0 0 0 0 0 0
Neighs:             78 ave          78 max          78 min
Histogram: 1 0 0 0 0 0 0 0 0 0

Total # of neighbors = 78
Ave neighs/atom = 6
Neighbor list builds = 0
Dangerous builds = 0
System init for write_data ...
   Step         TotEng        Atoms        Volume    
        41  -41.564145524022         13  125000
Loop time of 7.309e-06 on 1 procs for 0 steps with 13 atoms

0.0% CPU use with 1 MPI tasks x no OpenMP threads

MPI task timing breakdown:
Section |  min time  |  avg time  |  max time  |%varavg| %total
---------------------------------------------------------------
Pair    | 0          | 0          | 0          |   0.0 |  0.00
Neigh   | 0          | 0          | 0          |   0.0 |  0.00
Comm    | 0          | 0          | 0          |   0.0 |  0.00
Output  | 0          | 0          | 0          |   0.0 |  0.00
Modify  | 0          | 0          | 0          |   0.0 |  0.00
Other   |            | 7.309e-06  |            |       |100.00

Nlocal:             13 ave          13 max          13 min
Histogram: 1 0 0 0 0 0 0 0 0 0
Nghost:              0 ave           0 max           0 min
Histogram: 1 0 0 0 0 0 0 0 0 0
Neighs:             78 ave          78 max          78 min
Histogram: 1 0 0 0 0 0 0 0 0 0

Total # of neighbors = 78
Ave neighs/atom = 6
Neighbor list builds = 0
Dangerous builds = 0
Reading data file ...
  orthogonal box = (0 0 0) to (50 50 50)
  1 by 1 by 1 MPI processor grid
  reading atoms ...
  13 atoms
  read_data CPU = 0.000 seconds
WARNING: No fixes with time integration, atoms won't move (../verlet.cpp:60)
Neighbor list info ...
  update every 1 steps, delay 0 steps, check yes
  max neighbors/atom: 5000, page size: 100000
  master list distance cutoff = 13.999
  ghost atom cutoff = 13.999
  binsize = 6.9995, bins = 8 8 8
  1 neighbor lists, perpetual/occasional/extra = 1 0 0
  (1) pair eam, perpetual
      attributes: half, newton on
      pair build: half/bin/atomonly/newton
      stencil: half/bin/3d
      bin: standard
Setting up Verlet run ...
  Unit style    : metal
  Current step  : 0
  Time step     : 0.001
Per MPI rank memory allocation (min/avg/max) = 3.17 | 3.17 | 3.17 Mbytes
   Step         TotEng        Atoms        Volume    
         0  -34.804711846581         13  125000
Loop time of 9.674e-06 on 1 procs for 0 steps with 13 atoms

62.0% CPU use with 1 MPI tasks x no OpenMP threads

MPI task timing breakdown:
Section |  min time  |  avg time  |  max time  |%varavg| %total
---------------------------------------------------------------
Pair    | 0          | 0          | 0          |   0.0 |  0.00
Neigh   | 0          | 0          | 0          |   0.0 |  0.00
Comm    | 0          | 0          | 0          |   0.0 |  0.00
Output  | 0          | 0          | 0          |   0.0 |  0.00
Modify  | 0          | 0          | 0          |   0.0 |  0.00
Other   |            | 9.674e-06  |            |       |100.00

Nlocal:             13 ave          13 max          13 min
Histogram: 1 0 0 0 0 0 0 0 0 0
Nghost:              0 ave           0 max           0 min
Histogram: 1 0 0 0 0 0 0 0 0 0
Neighs:             78 ave          78 max          78 min
Histogram: 1 0 0 0 0 0 0 0 0 0

Total # of neighbors = 78
Ave neighs/atom = 6
Neighbor list builds = 0
Dangerous builds = 0
Setting up cg style minimization ...
  Unit style    : metal
  Current step  : 0
Per MPI rank memory allocation (min/avg/max) = 4.295 | 4.295 | 4.295 Mbytes
   Step         TotEng        Atoms        Volume    
         0  -34.804711846581         13  125000
        38  -41.732152813458         13  125000
Loop time of 0.00116432 on 1 procs for 38 steps with 13 atoms

99.7% CPU use with 1 MPI tasks x no OpenMP threads

Minimization stats:
  Stopping criterion = energy tolerance
  Energy initial, next-to-last, final = 
     -34.8047118465806  -41.7321525245824  -41.7321528134577
  Force two-norm initial, final = 13.178134 0.0014170597
  Force max component initial, final = 6.9301341 0.00051111471
  Final line search alpha, max atom move = 1 0.00051111471
  Iterations, force evaluations = 38 65

MPI task timing breakdown:
Section |  min time  |  avg time  |  max time  |%varavg| %total
---------------------------------------------------------------
Pair    | 0.00076063 | 0.00076063 | 0.00076063 |   0.0 | 65.33
Neigh   | 8.018e-06  | 8.018e-06  | 8.018e-06  |   0.0 |  0.69
Comm    | 0.00015524 | 0.00015524 | 0.00015524 |   0.0 | 13.33
Output  | 0          | 0          | 0          |   0.0 |  0.00
Modify  | 0          | 0          | 0          |   0.0 |  0.00
Other   |            | 0.0002404  |            |       | 20.65

Nlocal:             13 ave          13 max          13 min
Histogram: 1 0 0 0 0 0 0 0 0 0
Nghost:              0 ave           0 max           0 min
[...]

Nlocal:             13 ave          13 max          13 min
Histogram: 1 0 0 0 0 0 0 0 0 0
Nghost:              0 ave           0 max           0 min
Histogram: 1 0 0 0 0 0 0 0 0 0
Neighs:             78 ave          78 max          78 min
Histogram: 1 0 0 0 0 0 0 0 0 0

Total # of neighbors = 78
Ave neighs/atom = 6
Neighbor list builds = 0
Dangerous builds = 0
Setting up cg style minimization ...
  Unit style    : metal
  Current step  : 0
Per MPI rank memory allocation (min/avg/max) = 4.295 | 4.295 | 4.295 Mbytes
   Step         TotEng        Atoms        Volume    
         0  -21.438558060919         13  125000
        72  -41.805914796112         13  125000
Loop time of 0.00207525 on 1 procs for 72 steps with 13 atoms

99.8% CPU use with 1 MPI tasks x no OpenMP threads

Minimization stats:
  Stopping criterion = energy tolerance
  Energy initial, next-to-last, final = 
     -21.4385580609189  -41.8059143786263  -41.8059147961121
  Force two-norm initial, final = 73.099134 0.0020335766
  Force max component initial, final = 32.719843 0.00068617351
  Final line search alpha, max atom move = 1 0.00068617351
  Iterations, force evaluations = 72 122

MPI task timing breakdown:
Section |  min time  |  avg time  |  max time  |%varavg| %total
---------------------------------------------------------------
Pair    | 0.0013892  | 0.0013892  | 0.0013892  |   0.0 | 66.94
Neigh   | 1.5027e-05 | 1.5027e-05 | 1.5027e-05 |   0.0 |  0.72
Comm    | 0.00028569 | 0.00028569 | 0.00028569 |   0.0 | 13.77
Output  | 0          | 0          | 0          |   0.0 |  0.00
Modify  | 0          | 0          | 0          |   0.0 |  0.00
Other   |            | 0.0003853  |            |       | 18.57

Nlocal:             13 ave          13 max          13 min
Histogram: 1 0 0 0 0 0 0 0 0 0
Nghost:              0 ave           0 max           0 min
Histogram: 1 0 0 0 0 0 0 0 0 0
Neighs:             78 ave          78 max          78 min
Histogram: 1 0 0 0 0 0 0 0 0 0

Total # of neighbors = 78
Ave neighs/atom = 6
Neighbor list builds = 2
Dangerous builds = 0
System init for write_data ...
   Step         TotEng        Atoms        Volume    
        72  -41.805914796112         13  125000
Loop time of 1.0547e-05 on 1 procs for 0 steps with 13 atoms

322.4% CPU use with 1 MPI tasks x no OpenMP threads

MPI task timing breakdown:
Section |  min time  |  avg time  |  max time  |%varavg| %total
---------------------------------------------------------------
Pair    | 0          | 0          | 0          |   0.0 |  0.00
Neigh   | 0          | 0          | 0          |   0.0 |  0.00
Comm    | 0          | 0          | 0          |   0.0 |  0.00
Output  | 0          | 0          | 0          |   0.0 |  0.00
Modify  | 0          | 0          | 0          |   0.0 |  0.00
Other   |            | 1.055e-05  |            |       |100.00

Nlocal:             13 ave          13 max          13 min
Histogram: 1 0 0 0 0 0 0 0 0 0
Nghost:              0 ave           0 max           0 min
Histogram: 1 0 0 0 0 0 0 0 0 0
Neighs:             78 ave          78 max          78 min
Histogram: 1 0 0 0 0 0 0 0 0 0

Total # of neighbors = 78
Ave neighs/atom = 6
Neighbor list builds = 0
Dangerous builds = 0
Reading data file ...
  orthogonal box = (0 0 0) to (50 50 50)
  1 by 1 by 1 MPI processor grid
  reading atoms ...
  13 atoms
  read_data CPU = 0.000 seconds
Neighbor list info ...
  update every 1 steps, delay 0 steps, check yes
  max neighbors/atom: 5000, page size: 100000
  master list distance cutoff = 13.999
  ghost atom cutoff = 13.999
  binsize = 6.9995, bins = 8 8 8
  1 neighbor lists, perpetual/occasional/extra = 1 0 0
  (1) pair eam, perpetual
      attributes: half, newton on
      pair build: half/bin/atomonly/newton
      stencil: half/bin/3d
      bin: standard
Setting up Verlet run ...
  Unit style    : metal
  Current step  : 0
  Time step     : 0.001
Per MPI rank memory allocation (min/avg/max) = 3.17 | 3.17 | 3.17 Mbytes
   Step         TotEng        Atoms        Volume    
WARNING: Too many warnings: 298 vs 100. All future warnings will be suppressed (../thermo.cpp:461)
         0  -23.32134881832         13  125000
Loop time of 7.766e-06 on 1 procs for 0 steps with 13 atoms

77.3% CPU use with 1 MPI tasks x no OpenMP threads

MPI task timing breakdown:
Section |  min time  |  avg time  |  max time  |%varavg| %total
---------------------------------------------------------------
Pair    | 0          | 0          | 0          |   0.0 |  0.00
Neigh   | 0          | 0          | 0          |   0.0 |  0.00
Comm    | 0          | 0          | 0          |   0.0 |  0.00
Output  | 0          | 0          | 0          |   0.0 |  0.00
Modify  | 0          | 0          | 0          |   0.0 |  0.00
Other   |            | 7.766e-06  |            |       |100.00

Nlocal:             13 ave          13 max          13 min
Histogram: 1 0 0 0 0 0 0 0 0 0
Nghost:              0 ave           0 max           0 min
Histogram: 1 0 0 0 0 0 0 0 0 0
Neighs:             78 ave          78 max          78 min
Histogram: 1 0 0 0 0 0 0 0 0 0

Total # of neighbors = 78
Ave neighs/atom = 6
Neighbor list builds = 0
Dangerous builds = 0
Setting up cg style minimization ...
  Unit style    : metal
  Current step  : 0
Per MPI rank memory allocation (min/avg/max) = 4.295 | 4.295 | 4.295 Mbytes
   Step         TotEng        Atoms        Volume    
         0  -23.32134881832         13  125000
        69  -41.804920765635         13  125000
Loop time of 0.00116821 on 1 procs for 69 steps with 13 atoms

99.9% CPU use with 1 MPI tasks x no OpenMP threads

Minimization stats:
  Stopping criterion = energy tolerance
  Energy initial, next-to-last, final = 
       -23.32134881832  -41.8049204305879  -41.8049207656351
  Force two-norm initial, final = 77.43213 0.0016131784
  Force max component initial, final = 39.816015 0.00079433688
  Final line search alpha, max atom move = 1 0.00079433688
  Iterations, force evaluations = 69 122

MPI task timing breakdown:
Section |  min time  |  avg time  |  max time  |%varavg| %total
---------------------------------------------------------------
Pair    | 0.00075962 | 0.00075962 | 0.00075962 |   0.0 | 65.02
Neigh   | 4.524e-06  | 4.524e-06  | 4.524e-06  |   0.0 |  0.39
Comm    | 0.00018359 | 0.00018359 | 0.00018359 |   0.0 | 15.72
Output  | 0          | 0          | 0          |   0.0 |  0.00
Modify  | 0          | 0          | 0          |   0.0 |  0.00
Other   |            | 0.0002205  |            |       | 18.87

Nlocal:             13 ave          13 max          13 min
Histogram: 1 0 0 0 0 0 0 0 0 0
Nghost:              0 ave           0 max           0 min
Histogram: 1 0 0 0 0 0 0 0 0 0
Neighs:             78 ave          78 max          78 min
Histogram: 1 0 0 0 0 0 0 0 0 0

Total # of neighbors = 78
Ave neighs/atom = 6
Neighbor list builds = 1
Dangerous builds = 0
System init for write_data ...
   Step         TotEng        Atoms        Volume    
        69  -41.804920765635         13  125000
Loop time of 7.42e-06 on 1 procs for 0 steps with 13 atoms

107.8% CPU use with 1 MPI tasks x no OpenMP threads

MPI task timing breakdown:
Section |  min time  |  avg time  |  max time  |%varavg| %total
---------------------------------------------------------------
Pair    | 0          | 0          | 0          |   0.0 |  0.00
Neigh   | 0          | 0          | 0          |   0.0 |  0.00
Comm    | 0          | 0          | 0          |   0.0 |  0.00
Output  | 0          | 0          | 0          |   0.0 |  0.00
Modify  | 0          | 0          | 0          |   0.0 |  0.00
Other   |            | 7.42e-06   |            |       |100.00

Nlocal:             13 ave          13 max          13 min
Histogram: 1 0 0 0 0 0 0 0 0 0
Nghost:              0 ave           0 max           0 min
Histogram: 1 0 0 0 0 0 0 0 0 0
Neighs:             78 ave          78 max          78 min
Histogram: 1 0 0 0 0 0 0 0 0 0

Total # of neighbors = 78
Ave neighs/atom = 6
Neighbor list builds = 0
Dangerous builds = 0
Reading data file ...
  orthogonal box = (0 0 0) to (50 50 50)
  1 by 1 by 1 MPI processor grid
  reading atoms ...
  13 atoms
  read_data CPU = 0.000 seconds
Neighbor list info ...
  update every 1 steps, delay 0 steps, check yes
  max neighbors/atom: 5000, page size: 100000
  master list distance cutoff = 13.999
  ghost atom cutoff = 13.999
  binsize = 6.9995, bins = 8 8 8
  1 neighbor lists, perpetual/occasional/extra = 1 0 0
  (1) pair eam, perpetual
      attributes: half, newton on
      pair build: half/bin/atomonly/newton
      stencil: half/bin/3d
      bin: standard
Setting up Verlet run ...
  Unit style    : metal
  Current step  : 0
  Time step     : 0.001
Per MPI rank memory allocation (min/avg/max) = 3.17 | 3.17 | 3.17 Mbytes
   Step         TotEng        Atoms        Volume    
WARNING: Too many warnings: 299 vs 100. All future warnings will be suppressed (../thermo.cpp:461)
         0  -31.258651563846         13  125000
Loop time of 8.123e-06 on 1 procs for 0 steps with 13 atoms

73.9% CPU use with 1 MPI tasks x no OpenMP threads

MPI task timing breakdown:
Section |  min time  |  avg time  |  max time  |%varavg| %total
---------------------------------------------------------------
Pair    | 0          | 0          | 0          |   0.0 |  0.00
Neigh   | 0          | 0          | 0          |   0.0 |  0.00
Comm    | 0          | 0          | 0          |   0.0 |  0.00
Output  | 0          | 0          | 0          |   0.0 |  0.00
Modify  | 0          | 0          | 0          |   0.0 |  0.00
Other   |            | 8.123e-06  |            |       |100.00

Nlocal:             13 ave          13 max          13 min
Histogram: 1 0 0 0 0 0 0 0 0 0
Nghost:              0 ave           0 max           0 min
Histogram: 1 0 0 0 0 0 0 0 0 0
Neighs:             78 ave          78 max          78 min
Histogram: 1 0 0 0 0 0 0 0 0 0

Total # of neighbors = 78
Ave neighs/atom = 6
Neighbor list builds = 0
Dangerous builds = 0
Setting up cg style minimization ...
  Unit style    : metal
  Current step  : 0
Per MPI rank memory allocation (min/avg/max) = 4.295 | 4.295 | 4.295 Mbytes
   Step         TotEng        Atoms        Volume    
         0  -31.258651563846         13  125000
        45  -41.710685045012         13  125000
Loop time of 0.000826365 on 1 procs for 45 steps with 13 atoms

0.0% CPU use with 1 MPI tasks x no OpenMP threads

Minimization stats:
  Stopping criterion = energy tolerance
  Energy initial, next-to-last, final = 
     -31.2586515638461  -41.7106848133825  -41.7106850450124
  Force two-norm initial, final = 37.444812 0.001496127
  Force max component initial, final = 22.892507 0.00071121352
  Final line search alpha, max atom move = 1 0.00071121352
  Iterations, force evaluations = 45 74

MPI task timing breakdown:
Section |  min time  |  avg time  |  max time  |%varavg| %total
---------------------------------------------------------------
Pair    | 0.00052431 | 0.00052431 | 0.00052431 |   0.0 | 63.45
Neigh   | 4.428e-06  | 4.428e-06  | 4.428e-06  |   0.0 |  0.54
Comm    | 0.00012869 | 0.00012869 | 0.00012869 |   0.0 | 15.57
Output  | 0          | 0          | 0          |   0.0 |  0.00
Modify  | 0          | 0          | 0          |   0.0 |  0.00
Other   |            | 0.0001689  |            |       | 20.44

Nlocal:             13 ave          13 max          13 min
Histogram: 1 0 0 0 0 0 0 0 0 0
Nghost:              0 ave           0 max           0 min
Histogram: 1 0 0 0 0 0 0 0 0 0
Neighs:             78 ave          78 max          78 min
Histogram: 1 0 0 0 0 0 0 0 0 0

Total # of neighbors = 78
Ave neighs/atom = 6
Neighbor list builds = 1
Dangerous builds = 0
System init for write_data ...
   Step         TotEng        Atoms        Volume    
        45  -41.710685045012         13  125000
Loop time of 7.856e-06 on 1 procs for 0 steps with 13 atoms

89.1% CPU use with 1 MPI tasks x no OpenMP threads

MPI task timing breakdown:
Section |  min time  |  avg time  |  max time  |%varavg| %total
---------------------------------------------------------------
Pair    | 0          | 0          | 0          |   0.0 |  0.00
Neigh   | 0          | 0          | 0          |   0.0 |  0.00
Comm    | 0          | 0          | 0          |   0.0 |  0.00
Output  | 0          | 0          | 0          |   0.0 |  0.00
Modify  | 0          | 0          | 0          |   0.0 |  0.00
Other   |            | 7.856e-06  |            |       |100.00

Nlocal:             13 ave          13 max          13 min
Histogram: 1 0 0 0 0 0 0 0 0 0
Nghost:              0 ave           0 max           0 min
Histogram: 1 0 0 0 0 0 0 0 0 0
Neighs:             78 ave          78 max          78 min
Histogram: 1 0 0 0 0 0 0 0 0 0

Total # of neighbors = 78
Ave neighs/atom = 6
Neighbor list builds = 0
Dangerous builds = 0
Reading data file ...
  orthogonal box = (0 0 0) to (50 50 50)
  1 by 1 by 1 MPI processor grid
  reading atoms ...
  13 atoms
  read_data CPU = 0.000 seconds
Neighbor list info ...
  update every 1 steps, delay 0 steps, check yes
  max neighbors/atom: 5000, page size: 100000
  master list distance cutoff = 13.999
  ghost atom cutoff = 13.999
  binsize = 6.9995, bins = 8 8 8
  1 neighbor lists, perpetual/occasional/extra = 1 0 0
  (1) pair eam, perpetual
      attributes: half, newton on
      pair build: half/bin/atomonly/newton
      stencil: half/bin/3d
      bin: standard
Setting up Verlet run ...
  Unit style    : metal
  Current step  : 0
  Time step     : 0.001
Per MPI rank memory allocation (min/avg/max) = 3.17 | 3.17 | 3.17 Mbytes
   Step         TotEng        Atoms        Volume    
WARNING: Too many warnings: 300 vs 100. All future warnings will be suppressed (../thermo.cpp:461)
         0  -10.779053947914         13  125000
Loop time of 9.431e-06 on 1 procs for 0 steps with 13 atoms

74.2% CPU use with 1 MPI tasks x no OpenMP threads

MPI task timing breakdown:
Section |  min time  |  avg time  |  max time  |%varavg| %total
---------------------------------------------------------------
Pair    | 0          | 0          | 0          |   0.0 |  0.00
Neigh   | 0          | 0          | 0          |   0.0 |  0.00
Comm    | 0          | 0          | 0          |   0.0 |  0.00
Output  | 0          | 0          | 0          |   0.0 |  0.00
Modify  | 0          | 0          | 0          |   0.0 |  0.00
Other   |            | 9.431e-06  |            |       |100.00

Nlocal:             13 ave          13 max          13 min
Histogram: 1 0 0 0 0 0 0 0 0 0
Nghost:              0 ave           0 max           0 min
Histogram: 1 0 0 0 0 0 0 0 0 0
Neighs:             78 ave          78 max          78 min
Histogram: 1 0 0 0 0 0 0 0 0 0

Total # of neighbors = 78
Ave neighs/atom = 6
Neighbor list builds = 0
Dangerous builds = 0
Setting up cg style minimization ...
  Unit style    : metal
  Current step  : 0
Per MPI rank memory allocation (min/avg/max) = 4.295 | 4.295 | 4.295 Mbytes
   Step         TotEng        Atoms        Volume    
         0  -10.779053947914         13  125000
        60  -41.80591508306         13  125000
Loop time of 0.00130797 on 1 procs for 60 steps with 13 atoms

63.5% CPU use with 1 MPI tasks x no OpenMP threads

Minimization stats:
  Stopping criterion = energy tolerance
  Energy initial, next-to-last, final = 
     -10.7790539479139  -41.8059148000814  -41.8059150830597
  Force two-norm initial, final = 103.99777 0.0013961222
  Force max component initial, final = 44.22891 0.00054044974
  Final line search alpha, max atom move = 1 0.00054044974
  Iterations, force evaluations = 60 107

MPI task timing breakdown:
Section |  min time  |  avg time  |  max time  |%varavg| %total
---------------------------------------------------------------
Pair    | 0.00084772 | 0.00084772 | 0.00084772 |   0.0 | 64.81
Neigh   | 5.377e-06  | 5.377e-06  | 5.377e-06  |   0.0 |  0.41
Comm    | 0.00019598 | 0.00019598 | 0.00019598 |   0.0 | 14.98
Output  | 0          | 0          | 0          |   0.0 |  0.00
Modify  | 0          | 0          | 0          |   0.0 |  0.00
Other   |            | 0.0002589  |            |       | 19.79

Nlocal:             13 ave          13 max          13 min
Histogram: 1 0 0 0 0 0 0 0 0 0
Nghost:              0 ave           0 max           0 min
Histogram: 1 0 0 0 0 0 0 0 0 0
Neighs:             78 ave          78 max          78 min
Histogram: 1 0 0 0 0 0 0 0 0 0

Total # of neighbors = 78
Ave neighs/atom = 6
Neighbor list builds = 1
Dangerous builds = 0
System init for write_data ...
   Step         TotEng        Atoms        Volume    
        60  -41.80591508306         13  125000
Loop time of 8.258e-06 on 1 procs for 0 steps with 13 atoms

145.3% CPU use with 1 MPI tasks x no OpenMP threads

MPI task timing breakdown:
Section |  min time  |  avg time  |  max time  |%varavg| %total
---------------------------------------------------------------
Pair    | 0          | 0          | 0          |   0.0 |  0.00
Neigh   | 0          | 0          | 0          |   0.0 |  0.00
Comm    | 0          | 0          | 0          |   0.0 |  0.00
Output  | 0          | 0          | 0          |   0.0 |  0.00
Modify  | 0          | 0          | 0          |   0.0 |  0.00
Other   |            | 8.258e-06  |            |       |100.00

Nlocal:             13 ave          13 max          13 min
Histogram: 1 0 0 0 0 0 0 0 0 0
Nghost:              0 ave           0 max           0 min
Histogram: 1 0 0 0 0 0 0 0 0 0
Neighs:             78 ave          78 max          78 min
Histogram: 1 0 0 0 0 0 0 0 0 0

Total # of neighbors = 78
Ave neighs/atom = 6
Neighbor list builds = 0
Dangerous builds = 0
Reading data file ...
  orthogonal box = (0 0 0) to (50 50 50)
  1 by 1 by 1 MPI processor grid
  reading atoms ...
  13 atoms
  read_data CPU = 0.000 seconds
Neighbor list info ...
  update every 1 steps, delay 0 steps, check yes
  max neighbors/atom: 5000, page size: 100000
  master list distance cutoff = 13.999
  ghost atom cutoff = 13.999
  binsize = 6.9995, bins = 8 8 8
  1 neighbor lists, perpetual/occasional/extra = 1 0 0
  (1) pair eam, perpetual
      attributes: half, newton on
      pair build: half/bin/atomonly/newton
      stencil: half/bin/3d
      bin: standard
Setting up Verlet run ...
  Unit style    : metal
  Current step  : 0
  Time step     : 0.001
Per MPI rank memory allocation (min/avg/max) = 3.17 | 3.17 | 3.17 Mbytes
   Step         TotEng        Atoms        Volume    
WARNING: Too many warnings: 301 vs 100. All future warnings will be suppressed (../thermo.cpp:461)
         0  -27.059968511668         13  125000
Loop time of 7.52e-06 on 1 procs for 0 steps with 13 atoms

79.8% CPU use with 1 MPI tasks x no OpenMP threads

MPI task timing breakdown:
Section |  min time  |  avg time  |  max time  |%varavg| %total
---------------------------------------------------------------
Pair    | 0          | 0          | 0          |   0.0 |  0.00
Neigh   | 0          | 0          | 0          |   0.0 |  0.00
Comm    | 0          | 0          | 0          |   0.0 |  0.00
Output  | 0          | 0          | 0          |   0.0 |  0.00
Modify  | 0          | 0          | 0          |   0.0 |  0.00
Other   |            | 7.52e-06   |            |       |100.00

Nlocal:             13 ave          13 max          13 min
Histogram: 1 0 0 0 0 0 0 0 0 0
Nghost:              0 ave           0 max           0 min
Histogram: 1 0 0 0 0 0 0 0 0 0
Neighs:             78 ave          78 max          78 min
Histogram: 1 0 0 0 0 0 0 0 0 0

Total # of neighbors = 78
Ave neighs/atom = 6
Neighbor list builds = 0
Dangerous builds = 0
Setting up cg style minimization ...
  Unit style    : metal
  Current step  : 0
Per MPI rank memory allocation (min/avg/max) = 4.295 | 4.295 | 4.295 Mbytes
   Step         TotEng        Atoms        Volume    
         0  -27.059968511668         13  125000
        51  -41.82144554344         13  125000
Loop time of 0.000838255 on 1 procs for 51 steps with 13 atom