LAMMPS (24 Mar 2022)
clear
dimension 3
box tilt large
units metal
atom_style atomic
neighbor 2.0 bin
atom_modify map array sort 0 0
boundary f f f
read_data in.data
Reading data file ...
  orthogonal box = (0 0 0) to (50 50 50)
  1 by 1 by 1 MPI processor grid
  reading atoms ...
  13 atoms
  read_data CPU = 0.001 seconds
pair_style eam
pair_coeff * * Au.eam
thermo 1000
thermo_style custom step etotal atoms vol
thermo_modify format float %5.14g
variable potential equal pe/atoms
neigh_modify one 5000 delay 0 every 1 check yes
run 0 pre no
WARNING: No fixes with time integration, atoms won't move (../verlet.cpp:60)
Neighbor list info ...
  update every 1 steps, delay 0 steps, check yes
  max neighbors/atom: 5000, page size: 100000
  master list distance cutoff = 13.999
  ghost atom cutoff = 13.999
  binsize = 6.9995, bins = 8 8 8
  1 neighbor lists, perpetual/occasional/extra = 1 0 0
  (1) pair eam, perpetual
      attributes: half, newton on
      pair build: half/bin/atomonly/newton
      stencil: half/bin/3d
      bin: standard
Per MPI rank memory allocation (min/avg/max) = 3.17 | 3.17 | 3.17 Mbytes
   Step         TotEng        Atoms        Volume    
         0  -20.812094419455         13  125000
Loop time of 8.834e-06 on 1 procs for 0 steps with 13 atoms

45.3% CPU use with 1 MPI tasks x no OpenMP threads

MPI task timing breakdown:
Section |  min time  |  avg time  |  max time  |%varavg| %total
---------------------------------------------------------------
Pair    | 0          | 0          | 0          |   0.0 |  0.00
Neigh   | 0          | 0          | 0          |   0.0 |  0.00
Comm    | 0          | 0          | 0          |   0.0 |  0.00
Output  | 0          | 0          | 0          |   0.0 |  0.00
Modify  | 0          | 0          | 0          |   0.0 |  0.00
Other   |            | 8.834e-06  |            |       |100.00

Nlocal:             13 ave          13 max          13 min
Histogram: 1 0 0 0 0 0 0 0 0 0
Nghost:              0 ave           0 max           0 min
Histogram: 1 0 0 0 0 0 0 0 0 0
Neighs:             78 ave          78 max          78 min
Histogram: 1 0 0 0 0 0 0 0 0 0

Total # of neighbors = 78
Ave neighs/atom = 6
Neighbor list builds = 0
Dangerous builds = 0
minimize 1.0e-8 1.0e-8 10000 10000
Per MPI rank memory allocation (min/avg/max) = 4.295 | 4.295 | 4.295 Mbytes
   Step         TotEng        Atoms        Volume    
         0  -20.812094419455         13  125000
       217  -41.260725732884         13  125000
Loop time of 0.0045144 on 1 procs for 217 steps with 13 atoms

3.2% CPU use with 1 MPI tasks x no OpenMP threads

Minimization stats:
  Stopping criterion = energy tolerance
  Energy initial, next-to-last, final = 
     -20.8120944194549  -41.2607255303198  -41.2607257328837
  Force two-norm initial, final = 6.5612833 0.0016659243
  Force max component initial, final = 2.0067602 0.0007141239
  Final line search alpha, max atom move = 1 0.0007141239
  Iterations, force evaluations = 217 403

MPI task timing breakdown:
Section |  min time  |  avg time  |  max time  |%varavg| %total
---------------------------------------------------------------
Pair    | 0.0030509  | 0.0030509  | 0.0030509  |   0.0 | 67.58
Neigh   | 3.2405e-05 | 3.2405e-05 | 3.2405e-05 |   0.0 |  0.72
Comm    | 0.00062183 | 0.00062183 | 0.00062183 |   0.0 | 13.77
Output  | 0          | 0          | 0          |   0.0 |  0.00
Modify  | 0          | 0          | 0          |   0.0 |  0.00
Other   |            | 0.0008093  |            |       | 17.93

Nlocal:             13 ave          13 max          13 min
Histogram: 1 0 0 0 0 0 0 0 0 0
Nghost:              0 ave           0 max           0 min
Histogram: 1 0 0 0 0 0 0 0 0 0
Neighs:             78 ave          78 max          78 min
Histogram: 1 0 0 0 0 0 0 0 0 0

Total # of neighbors = 78
Ave neighs/atom = 6
Neighbor list builds = 7
Dangerous builds = 0
write_data min.geo
System init for write_data ...
run 0 pre no
   Step         TotEng        Atoms        Volume    
       217  -41.260725732884         13  125000
Loop time of 7.71e-06 on 1 procs for 0 steps with 13 atoms

51.9% CPU use with 1 MPI tasks x no OpenMP threads

MPI task timing breakdown:
Section |  min time  |  avg time  |  max time  |%varavg| %total
---------------------------------------------------------------
Pair    | 0          | 0          | 0          |   0.0 |  0.00
Neigh   | 0          | 0          | 0          |   0.0 |  0.00
Comm    | 0          | 0          | 0          |   0.0 |  0.00
Output  | 0          | 0          | 0          |   0.0 |  0.00
Modify  | 0          | 0          | 0          |   0.0 |  0.00
Other   |            | 7.71e-06   |            |       |100.00

Nlocal:             13 ave          13 max          13 min
Histogram: 1 0 0 0 0 0 0 0 0 0
Nghost:              0 ave           0 max           0 min
Histogram: 1 0 0 0 0 0 0 0 0 0
Neighs:             78 ave          78 max          78 min
Histogram: 1 0 0 0 0 0 0 0 0 0

Total # of neighbors = 78
Ave neighs/atom = 6
Neighbor list builds = 0
Dangerous builds = 0
clear
dimension 3
box tilt large
units metal
atom_style atomic
neighbor 2.0 bin
atom_modify map array sort 0 0
boundary f f f
read_data in.data
Reading data file ...
  orthogonal box = (0 0 0) to (50 50 50)
  1 by 1 by 1 MPI processor grid
  reading atoms ...
  13 atoms
  read_data CPU = 0.000 seconds
pair_style eam
pair_coeff * * Au.eam
thermo 1000
thermo_style custom step etotal atoms vol
thermo_modify format float %5.14g
variable potential equal pe/atoms
neigh_modify one 5000 delay 0 every 1 check yes
run 0 pre no
WARNING: No fixes with time integration, atoms won't move (../verlet.cpp:60)
Neighbor list info ...
  update every 1 steps, delay 0 steps, check yes
  max neighbors/atom: 5000, page size: 100000
  master list distance cutoff = 13.999
  ghost atom cutoff = 13.999
  binsize = 6.9995, bins = 8 8 8
  1 neighbor lists, perpetual/occasional/extra = 1 0 0
  (1) pair eam, perpetual
      attributes: half, newton on
      pair build: half/bin/atomonly/newton
      stencil: half/bin/3d
      bin: standard
Per MPI rank memory allocation (min/avg/max) = 3.17 | 3.17 | 3.17 Mbytes
   Step         TotEng        Atoms        Volume    
         0  -29.823065835537         13  125000
Loop time of 7.356e-06 on 1 procs for 0 steps with 13 atoms

40.8% CPU use with 1 MPI tasks x no OpenMP threads

MPI task timing breakdown:
Section |  min time  |  avg time  |  max time  |%varavg| %total
---------------------------------------------------------------
Pair    | 0          | 0          | 0          |   0.0 |  0.00
Neigh   | 0          | 0          | 0          |   0.0 |  0.00
Comm    | 0          | 0          | 0          |   0.0 |  0.00
Output  | 0          | 0          | 0          |   0.0 |  0.00
Modify  | 0          | 0          | 0          |   0.0 |  0.00
Other   |            | 7.356e-06  |            |       |100.00

Nlocal:             13 ave          13 max          13 min
Histogram: 1 0 0 0 0 0 0 0 0 0
Nghost:              0 ave           0 max           0 min
Histogram: 1 0 0 0 0 0 0 0 0 0
Neighs:             78 ave          78 max          78 min
Histogram: 1 0 0 0 0 0 0 0 0 0

Total # of neighbors = 78
Ave neighs/atom = 6
Neighbor list builds = 0
Dangerous builds = 0
minimize 1.0e-8 1.0e-8 10000 10000
Per MPI rank memory allocation (min/avg/max) = 4.295 | 4.295 | 4.295 Mbytes
   Step         TotEng        Atoms        Volume    
         0  -29.823065835537         13  125000
        65  -41.26072533084         13  125000
Loop time of 0.00112068 on 1 procs for 65 steps with 13 atoms

99.9% CPU use with 1 MPI tasks x no OpenMP threads

Minimization stats:
  Stopping criterion = energy tolerance
  Energy initial, next-to-last, final = 
     -29.8230658355371  -41.2607250369053  -41.2607253308397
  Force two-norm initial, final = 48.006052 0.0020972876
  Force max component initial, final = 23.515051 0.00089822416
  Final line search alpha, max atom move = 1 0.00089822416
  Iterations, force evaluations = 65 120

MPI task timing breakdown:
Section |  min time  |  avg time  |  max time  |%varavg| %total
---------------------------------------------------------------
Pair    | 0.00070859 | 0.00070859 | 0.00070859 |   0.0 | 63.23
Neigh   | 3.959e-06  | 3.959e-06  | 3.959e-06  |   0.0 |  0.35
Comm    | 0.00018272 | 0.00018272 | 0.00018272 |   0.0 | 16.30
Output  | 0          | 0          | 0          |   0.0 |  0.00
Modify  | 0          | 0          | 0          |   0.0 |  0.00
Other   |            | 0.0002254  |            |       | 20.11

Nlocal:             13 ave          13 max          13 min
Histogram: 1 0 0 0 0 0 0 0 0 0
Nghost:              0 ave           0 max           0 min
Histogram: 1 0 0 0 0 0 0 0 0 0
Neighs:             78 ave          78 max          78 min
Histogram: 1 0 0 0 0 0 0 0 0 0

Total # of neighbors = 78
Ave neighs/atom = 6
Neighbor list builds = 1
Dangerous builds = 0
write_data min.geo
System init for write_data ...
run 0 pre no
   Step         TotEng        Atoms        Volume    
        65  -41.26072533084         13  125000
Loop time of 7.416e-06 on 1 procs for 0 steps with 13 atoms

161.8% CPU use with 1 MPI tasks x no OpenMP threads

MPI task timing breakdown:
Section |  min time  |  avg time  |  max time  |%varavg| %total
---------------------------------------------------------------
Pair    | 0          | 0          | 0          |   0.0 |  0.00
Neigh   | 0          | 0          | 0          |   0.0 |  0.00
Comm    | 0          | 0          | 0          |   0.0 |  0.00
Output  | 0          | 0          | 0          |   0.0 |  0.00
Modify  | 0          | 0          | 0          |   0.0 |  0.00
Other   |            | 7.416e-06  |            |       |100.00

Nlocal:             13 ave          13 max          13 min
Histogram: 1 0 0 0 0 0 0 0 0 0
Nghost:              0 ave           0 max           0 min
Histogram: 1 0 0 0 0 0 0 0 0 0
Neighs:             78 ave          78 max          78 min
Histogram: 1 0 0 0 0 0 0 0 0 0

Total # of neighbors = 78
Ave neighs/atom = 6
Neighbor list builds = 0
Dangerous builds = 0
clear
dimension 3
box tilt large
units metal
atom_style atomic
neighbor 2.0 bin
atom_modify map array sort 0 0
boundary f f f
read_data in.data
Reading data file ...
  orthogonal box = (0 0 0) to (50 50 50)
  1 by 1 by 1 MPI processor grid
  reading atoms ...
  13 atoms
  read_data CPU = 0.000 seconds
pair_style eam
pair_coeff * * Au.eam
thermo 1000
thermo_style custom step etotal atoms vol
thermo_modify format float %5.14g
variable potential equal pe/atoms
neigh_modify one 5000 delay 0 every 1 check yes
run 0 pre no
WARNING: No fixes with time integration, atoms won't move (../verlet.cpp:60)
Neighbor list info ...
  update every 1 steps, delay 0 steps, check yes
  max neighbors/atom: 5000, page size: 100000
  master list distance cutoff = 13.999
  ghost atom cutoff = 13.999
  binsize = 6.9995, bins = 8 8 8
  1 neighbor lists, perpetual/occasional/extra = 1 0 0
  (1) pair eam, perpetual
      attributes: half, newton on
      pair build: half/bin/atomonly/newton
      stencil: half/bin/3d
      bin: standard
Per MPI rank memory allocation (min/avg/max) = 3.17 | 3.17 | 3.17 Mbytes
   Step         TotEng        Atoms        Volume    
         0  -34.643547290766         13  125000
Loop time of 7.03e-06 on 1 procs for 0 steps with 13 atoms

42.7% CPU use with 1 MPI tasks x no OpenMP threads

MPI task timing breakdown:
Section |  min time  |  avg time  |  max time  |%varavg| %total
---------------------------------------------------------------
Pair    | 0          | 0          | 0          |   0.0 |  0.00
Neigh   | 0          | 0          | 0          |   0.0 |  0.00
Comm    | 0          | 0          | 0          |   0.0 |  0.00
Output  | 0          | 0          | 0          |   0.0 |  0.00
Modify  | 0          | 0          | 0          |   0.0 |  0.00
Other   |            | 7.03e-06   |            |       |100.00

Nlocal:             13 ave          13 max          13 min
Histogram: 1 0 0 0 0 0 0 0 0 0
Nghost:              0 ave           0 max           0 min
Histogram: 1 0 0 0 0 0 0 0 0 0
Neighs:             78 ave          78 max          78 min
Histogram: 1 0 0 0 0 0 0 0 0 0

Total # of neighbors = 78
Ave neighs/atom = 6
Neighbor list builds = 0
Dangerous builds = 0
minimize 1.0e-8 1.0e-8 10000 10000
Per MPI rank memory allocation (min/avg/max) = 4.295 | 4.295 | 4.295 Mbytes
   Step         TotEng        Atoms        Volume    
         0  -34.643547290766         13  125000
        46  -41.772957918839         13  125000
Loop time of 0.000684044 on 1 procs for 46 steps with 13 atoms

38.3% CPU use with 1 MPI tasks x no OpenMP threads

Minimization stats:
  Stopping criterion = energy tolerance
  Energy initial, next-to-last, final = 
     -34.6435472907662  -41.7729576746661  -41.7729579188391
  Force two-norm initial, final = 21.624939 0.001172636
  Force max component initial, final = 11.614515 0.00047227672
  Final line search alpha, max atom move = 1 0.00047227672
  Iterations, force evaluations = 46 78

MPI task timing breakdown:
Section |  min time  |  avg time  |  max time  |%varavg| %total
---------------------------------------------------------------
Pair    | 0.00044673 | 0.00044673 | 0.00044673 |   0.0 | 65.31
Neigh   | 3.75e-06   | 3.75e-06   | 3.75e-06   |   0.0 |  0.55
Comm    | 9.9919e-05 | 9.9919e-05 | 9.9919e-05 |   0.0 | 14.61
Output  | 0          | 0          | 0          |   0.0 |  0.00
Modify  | 0          | 0          | 0          |   0.0 |  0.00
Other   |            | 0.0001336  |            |       | 19.54

Nlocal:             13 ave          13 max          13 min
Histogram: 1 0 0 0 0 0 0 0 0 0
Nghost:              0 ave           0 max           0 min
Histogram: 1 0 0 0 0 0 0 0 0 0
Neighs:             78 ave          78 max          78 min
Histogram: 1 0 0 0 0 0 0 0 0 0

Total # of neighbors = 78
Ave neighs/atom = 6
Neighbor list builds = 1
Dangerous builds = 0
write_data min.geo
System init for write_data ...
run 0 pre no
   Step         TotEng        Atoms        Volume    
        46  -41.772957918839         13  125000
Loop time of 6.995e-06 on 1 procs for 0 steps with 13 atoms

171.6% CPU use with 1 MPI tasks x no OpenMP threads

MPI task timing breakdown:
Section |  min time  |  avg time  |  max time  |%varavg| %total
---------------------------------------------------------------
Pair    | 0          | 0          | 0          |   0.0 |  0.00
Neigh   | 0          | 0          | 0          |   0.0 |  0.00
Comm    | 0          | 0          | 0          |   0.0 |  0.00
Output  | 0          | 0          | 0          |   0.0 |  0.00
Modify  | 0          | 0          | 0          |   0.0 |  0.00
Other   |            | 6.995e-06  |            |       |100.00

Nlocal:             13 ave          13 max          13 min
Histogram: 1 0 0 0 0 0 0 0 0 0
Nghost:              0 ave           0 max           0 min
Histogram: 1 0 0 0 0 0 0 0 0 0
Neighs:             78 ave          78 max          78 min
Histogram: 1 0 0 0 0 0 0 0 0 0

Total # of neighbors = 78
Ave neighs/atom = 6
Neighbor list builds = 0
Dangerous builds = 0
clear
dimension 3
box tilt large
units metal
atom_style atomic
neighbor 2.0 bin
atom_modify map array sort 0 0
boundary f f f
read_data in.data
Reading data file ...
  orthogonal box = (0 0 0) to (50 50 50)
  1 by 1 by 1 MPI processor grid
  reading atoms ...
  13 atoms
  read_data CPU = 0.000 seconds
pair_style eam
pair_coeff * * Au.eam
thermo 1000
thermo_style custom step etotal atoms vol
thermo_modify format float %5.14g
variable potential equal pe/atoms
neigh_modify one 5000 delay 0 every 1 check yes
run 0 pre no
WARNING: No fixes with time integration, atoms won't move (../verlet.cpp:60)
Neighbor list info ...
  update every 1 steps, delay 0 steps, check yes
  max neighbors/atom: 5000, page size: 100000
  master list distance cutoff = 13.999
  ghost atom cutoff = 13.999
  binsize = 6.9995, bins = 8 8 8
  1 neighbor lists, perpetual/occasional/extra = 1 0 0
  (1) pair eam, perpetual
      attributes: half, newton on
      pair build: half/bin/atomonly/newton
      stencil: half/bin/3d
      bin: standard
Per MPI rank memory allocation (min/avg/max) = 3.17 | 3.17 | 3.17 Mbytes
   Step         TotEng        Atoms        Volume    
         0  -25.875553195804         13  125000
Loop time of 7.085e-06 on 1 procs for 0 steps with 13 atoms

42.3% CPU use with 1 MPI tasks x no OpenMP threads

MPI task timing breakdown:
Section |  min time  |  avg time  |  max time  |%varavg| %total
---------------------------------------------------------------
Pair    | 0          | 0          | 0          |   0.0 |  0.00
Neigh   | 0          | 0          | 0          |   0.0 |  0.00
Comm    | 0          | 0          | 0          |   0.0 |  0.00
Output  | 0          | 0          | 0          |   0.0 |  0.00
Modify  | 0          | 0          | 0          |   0.0 |  0.00
Other   |            | 7.085e-06  |            |       |100.00

Nlocal:             13 ave          13 max          13 min
Histogram: 1 0 0 0 0 0 0 0 0 0
Nghost:              0 ave           0 max           0 min
Histogram: 1 0 0 0 0 0 0 0 0 0
Neighs:             78 ave          78 max          78 min
Histogram: 1 0 0 0 0 0 0 0 0 0

Total # of neighbors = 78
Ave neighs/atom = 6
Neighbor list builds = 0
Dangerous builds = 0
minimize 1.0e-8 1.0e-8 10000 10000
Per MPI rank memory allocation (min/avg/max) = 4.295 | 4.295 | 4.295 Mbytes
   Step         TotEng        Atoms        Volume    
         0  -25.875553195804         13  125000
        49  -41.483473997093         13  125000
Loop time of 0.000722878 on 1 procs for 49 steps with 13 atoms

99.7% CPU use with 1 MPI tasks x no OpenMP threads

Minimization stats:
  Stopping criterion = energy tolerance
  Energy initial, next-to-last, final = 
      -25.875553195804  -41.4834738666566  -41.4834739970927
  Force two-norm initial, final = 67.636508 0.0010771336
  Force max component initial, final = 27.121141 0.00039593964
  Final line search alpha, max atom move = 1 0.00039593964
  Iterations, force evaluations = 49 85

MPI task timing breakdown:
Section |  min time  |  avg time  |  max time  |%varavg| %total
---------------------------------------------------------------
Pair    | 0.00046912 | 0.00046912 | 0.00046912 |   0.0 | 64.90
Neigh   | 3.922e-06  | 3.922e-06  | 3.922e-06  |   0.0 |  0.54
Comm    | 0.0001077  | 0.0001077  | 0.0001077  |   0.0 | 14.90
Output  | 0          | 0          | 0          |   0.0 |  0.00
Modify  | 0          | 0          | 0          |   0.0 |  0.00
Other   |            | 0.0001421  |            |       | 19.66

Nlocal:             13 ave          13 max          13 min
Histogram: 1 0 0 0 0 0 0 0 0 0
Nghost:              0 ave           0 max           0 min
Histogram: 1 0 0 0 0 0 0 0 0 0
Neighs:             78 ave          78 max          78 min
Histogram: 1 0 0 0 0 0 0 0 0 0

Total # of neighbors = 78
Ave neighs/atom = 6
Neighbor list builds = 1
Dangerous builds = 0
write_data min.geo
System init for write_data ...
run 0 pre no
   Step         TotEng        Atoms        Volume    
        49  -41.483473997093         13  125000
Loop time of 8.757e-06 on 1 procs for 0 steps with 13 atoms

205.5% CPU use with 1 MPI tasks x no OpenMP threads

MPI task timing breakdown:
Section |  min time  |  avg time  |  max time  |%varavg| %total
---------------------------------------------------------------
Pair    | 0          | 0          | 0          |   0.0 |  0.00
Neigh   | 0          | 0          | 0          |   0.0 |  0.00
Comm    | 0          | 0          | 0          |   0.0 |  0.00
Output  | 0          | 0          | 0          |   0.0 |  0.00
Modify  | 0          | 0          | 0          |   0.0 |  0.00
Other   |            | 8.757e-06  |            |       |100.00

Nlocal:             13 ave          13 max          13 min
Histogram: 1 0 0 0 0 0 0 0 0 0
Nghost:              0 ave           0 max           0 min
Histogram: 1 0 0 0 0 0 0 0 0 0
Neighs:             78 ave          78 max          78 min
Histogram: 1 0 0 0 0 0 0 0 0 0

Total # of neighbors = 78
Ave neighs/atom = 6
Neighbor list builds = 0
Dangerous builds = 0
clear
dimension 3
box tilt large
units metal
atom_style atomic
neighbor 2.0 bin
atom_modify map array sort 0 0
boundary f f f
read_data in.data
Reading data file ...
  orthogonal box = (0 0 0) to (50 50 50)
  1 by 1 by 1 MPI processor grid
  reading atoms ...
  13 atoms
  read_data CPU = 0.000 seconds
pair_style eam
pair_coeff * * Au.eam
thermo 1000
thermo_style custom step etotal atoms vol
thermo_modify format float %5.14g
variable potential equal pe/atoms
neigh_modify one 5000 delay 0 every 1 check yes
run 0 pre no
WARNING: No fixes with time integration, atoms won't move (../verlet.cpp:60)
Neighbor list info ...
  update every 1 steps, delay 0 steps, check yes
  max neighbors/atom: 5000, page size: 100000
  master list distance cutoff = 13.999
  ghost atom cutoff = 13.999
  binsize = 6.9995, bins = 8 8 8
  1 neighbor lists, perpetual/occasional/extra = 1 0 0
  (1) pair eam, perpetual
      attributes: half, newton on
      pair build: half/bin/atomonly/newton
      stencil: half/bin/3d
      bin: standard
Per MPI rank memory allocation (min/avg/max) = 3.17 | 3.17 | 3.17 Mbytes
   Step         TotEng        Atoms        Volume    
         0  -31.487456741487         13  125000
Loop time of 7.005e-06 on 1 procs for 0 steps with 13 atoms

42.8% CPU use with 1 MPI tasks x no OpenMP threads

MPI task timing breakdown:
Section |  min time  |  avg time  |  max time  |%varavg| %total
---------------------------------------------------------------
Pair    | 0          | 0          | 0          |   0.0 |  0.00
Neigh   | 0          | 0          | 0          |   0.0 |  0.00
Comm    | 0          | 0          | 0          |   0.0 |  0.00
Output  | 0          | 0          | 0          |   0.0 |  0.00
Modify  | 0          | 0          | 0          |   0.0 |  0.00
Other   |            | 7.005e-06  |            |       |100.00

Nlocal:             13 ave          13 max          13 min
Histogram: 1 0 0 0 0 0 0 0 0 0
Nghost:              0 ave           0 max           0 min
Histogram: 1 0 0 0 0 0 0 0 0 0
Neighs:             78 ave          78 max          78 min
Histogram: 1 0 0 0 0 0 0 0 0 0

Total # of neighbors = 78
Ave neighs/atom = 6
Neighbor list builds = 0
Dangerous builds = 0
minimize 1.0e-8 1.0e-8 10000 10000
Per MPI rank memory allocation (min/avg/max) = 4.295 | 4.295 | 4.295 Mbytes
   Step         TotEng        Atoms        Volume    
         0  -31.487456741487         13  125000
        49  -41.772957849083         13  125000
Loop time of 0.00141447 on 1 procs for 49 steps with 13 atoms

0.0% CPU use with 1 MPI tasks x no OpenMP threads

Minimization stats:
  Stopping criterion = energy tolerance
  Energy initial, next-to-last, final = 
     -31.4874567414874  -41.7729576831792  -41.7729578490834
  Force two-norm initial, final = 42.159037 0.0011387593
  Force max component initial, final = 19.396368 0.00047660415
  Final line search alpha, max atom move = 1 0.00047660415
  Iterations, force evaluations = 49 88

MPI task timing breakdown:
Section |  min time  |  avg time  |  max time  |%varavg| %total
---------------------------------------------------------------
Pair    | 0.00092987 | 0.00092987 | 0.00092987 |   0.0 | 65.74
Neigh   | 7.58e-06   | 7.58e-06   | 7.58e-06   |   0.0 |  0.54
Comm    | 0.00020444 | 0.00020444 | 0.00020444 |   0.0 | 14.45
Output  | 0          | 0          | 0          |   0.0 |  0.00
Modify  | 0          | 0          | 0          |   0.0 |  0.00
Other   |            | 0.0002726  |            |       | 19.27

Nlocal:             13 ave          13 max          13 min
Histogram: 1 0 0 0 0 0 0 0 0 0
Nghost:              0 ave           0 max           0 min
Histogram: 1 0 0 0 0 0 0 0 0 0
Neighs:             78 ave          78 max          78 min
Histogram: 1 0 0 0 0 0 0 0 0 0

Total # of neighbors = 78
Ave neighs/atom = 6
Neighbor list builds = 1
Dangerous builds = 0
write_data min.geo
System init for write_data ...
run 0 pre no
   Step         TotEng        Atoms        Volume    
        49  -41.772957849083         13  125000
Loop time of 8.921e-06 on 1 procs for 0 steps with 13 atoms

67.3% CPU use with 1 MPI tasks x no OpenMP threads

MPI task timing breakdown:
Section |  min time  |  avg time  |  max time  |%varavg| %total
---------------------------------------------------------------
Pair    | 0          | 0          | 0          |   0.0 |  0.00
Neigh   | 0          | 0          | 0          |   0.0 |  0.00
Comm    | 0          | 0          | 0          |   0.0 |  0.00
Output  | 0          | 0          | 0          |   0.0 |  0.00
Modify  | 0          | 0          | 0          |   0.0 |  0.00
Other   |            | 8.921e-06  |            |       |100.00

Nlocal:             13 ave          13 max          13 min
Histogram: 1 0 0 0 0 0 0 0 0 0
Nghost:              0 ave           0 max           0 min
Histogram: 1 0 0 0 0 0 0 0 0 0
Neighs:             78 ave          78 max          78 min
Histogram: 1 0 0 0 0 0 0 0 0 0

Total # of neighbors = 78
Ave neighs/atom = 6
Neighbor list builds = 0
Dangerous builds = 0
clear
dimension 3
box tilt large
units metal
atom_style atomic
neighbor 2.0 bin
atom_modify map array sort 0 0
boundary f f f
read_data in.data
Reading data file ...
  orthogonal box = (0 0 0) to (50 50 50)
  1 by 1 by 1 MPI processor grid
  reading atoms ...
  13 atoms
  read_data CPU = 0.000 seconds
pair_style eam
pair_coeff * * Au.eam
thermo 1000
thermo_style custom step etotal atoms vol
thermo_modify format float %5.14g
variable potential equal pe/atoms
neigh_modify one 5000 delay 0 every 1 check yes
run 0 pre no
WARNING: No fixes with time integration, atoms won't move (../verlet.cpp:60)
Neighbor list info ...
  update every 1 steps, delay 0 steps, check yes
  max neighbors/atom: 5000, page size: 100000
  master list distance cutoff = 13.999
  ghost atom cutoff = 13.999
  binsize = 6.9995, bins = 8 8 8
  1 neighbor lists, perpetual/occasional/extra = 1 0 0
  (1) pair eam, perpetual
      attributes: half, newton on
      pair build: half/bin/atomonly/newton
      stencil: half/bin/3d
      bin: standard
Per MPI rank memory allocation (min/avg/max) = 3.17 | 3.17 | 3.17 Mbytes
   Step         TotEng        Atoms        Volume    
         0  -17.28146061002         13  125000
Loop time of 8.93e-06 on 1 procs for 0 steps with 13 atoms

44.8% CPU use with 1 MPI tasks x no OpenMP threads

MPI task timing breakdown:
Section |  min time  |  avg time  |  max time  |%varavg| %total
---------------------------------------------------------------
Pair    | 0          | 0          | 0          |   0.0 |  0.00
Neigh   | 0          | 0          | 0          |   0.0 |  0.00
Comm    | 0          | 0          | 0          |   0.0 |  0.00
Output  | 0          | 0          | 0          |   0.0 |  0.00
Modify  | 0          | 0          | 0          |   0.0 |  0.00
Other   |            | 8.93e-06   |            |       |100.00

Nlocal:             13 ave          13 max          13 min
Histogram: 1 0 0 0 0 0 0 0 0 0
Nghost:              0 ave           0 max           0 min
Histogram: 1 0 0 0 0 0 0 0 0 0
Neighs:             78 ave          78 max          78 min
Histogram: 1 0 0 0 0 0 0 0 0 0

Total # of neighbors = 78
Ave neighs/atom = 6
Neighbor list builds = 0
Dangerous builds = 0
minimize 1.0e-8 1.0e-8 10000 10000
Per MPI rank memory allocation (min/avg/max) = 4.295 | 4.295 | 4.295 Mbytes
   Step         TotEng        Atoms        Volume    
         0  -17.28146061002         13  125000
        49  -41.772957904522         13  125000
Loop time of 0.00136037 on 1 procs for 49 steps with 13 atoms

0.0% CPU use with 1 MPI tasks x no OpenMP threads

Minimization stats:
  Stopping criterion = energy tolerance
  Energy initial, next-to-last, final = 
     -17.2814606100202  -41.7729576623281  -41.7729579045219
  Force two-norm initial, final = 98.69018 0.0013918988
  Force max component initial, final = 41.863568 0.00050861161
  Final line search alpha, max atom move = 1 0.00050861161
  Iterations, force evaluations = 49 86

MPI task timing breakdown:
Section |  min time  |  avg time  |  max time  |%varavg| %total
---------------------------------------------------------------
Pair    | 0.0008841  | 0.0008841  | 0.0008841  |   0.0 | 64.99
Neigh   | 7.52e-06   | 7.52e-06   | 7.52e-06   |   0.0 |  0.55
Comm    | 0.00020136 | 0.00020136 | 0.00020136 |   0.0 | 14.80
Output  | 0          | 0          | 0          |   0.0 |  0.00
Modify  | 0          | 0          | 0          |   0.0 |  0.00
Other   |            | 0.0002674  |            |       | 19.66

Nlocal:             13 ave          13 max          13 min
Histogram: 1 0 0 0 0 0 0 0 0 0
Nghost:              0 ave           0 max           0 min
Histogram: 1 0 0 0 0 0 0 0 0 0
Neighs:             78 ave          78 max          78 min
Histogram: 1 0 0 0 0 0 0 0 0 0

Total # of neighbors = 78
Ave neighs/atom = 6
Neighbor list builds = 1
Dangerous builds = 0
write_data min.geo
System init for write_data ...
run 0 pre no
   Step         TotEng        Atoms        Volume    
        49  -41.772957904522         13  125000
Loop time of 8.806e-06 on 1 procs for 0 steps with 13 atoms

56.8% CPU use with 1 MPI tasks x no OpenMP threads

MPI task timing breakdown:
Section |  min time  |  avg time  |  max time  |%varavg| %total
---------------------------------------------------------------
Pair    | 0          | 0          | 0          |   0.0 |  0.00
Neigh   | 0          | 0          | 0          |   0.0 |  0.00
Comm    | 0          | 0          | 0          |   0.0 |  0.00
Output  | 0          | 0          | 0          |   0.0 |  0.00
Modify  | 0          | 0          | 0          |   0.0 |  0.00
Other   |            | 8.806e-06  |            |       |100.00

Nlocal:             13 ave          13 max          13 min
Histogram: 1 0 0 0 0 0 0 0 0 0
Nghost:              0 ave           0 max           0 min
Histogram: 1 0 0 0 0 0 0 0 0 0
Neighs:             78 ave          78 max          78 min
Histogram: 1 0 0 0 0 0 0 0 0 0

Total # of neighbors = 78
Ave neighs/atom = 6
Neighbor list builds = 0
Dangerous builds = 0
clear
dimension 3
box tilt large
units metal
atom_style atomic
neighbor 2.0 bin
atom_modify map array sort 0 0
boundary f f f
read_data in.data
Reading data file ...
  orthogonal box = (0 0 0) to (50 50 50)
  1 by 1 by 1 MPI processor grid
  reading atoms ...
  13 atoms
  read_data CPU = 0.000 seconds
pair_style eam
pair_coeff * * Au.eam
thermo 1000
thermo_style custom step etotal atoms vol
thermo_modify format float %5.14g
variable potential equal pe/atoms
neigh_modify one 5000 delay 0 every 1 check yes
run 0 pre no
WARNING: No fixes with time integration, atoms won't move (../verlet.cpp:60)
Neighbor list info ...
  update every 1 steps, delay 0 steps, check yes
  max neighbors/atom: 5000, page size: 100000
  master list distance cutoff = 13.999
  ghost atom cutoff = 13.999
  binsize = 6.9995, bins = 8 8 8
  1 neighbor lists, perpetual/occasional/extra = 1 0 0
  (1) pair eam, perpetual
      attributes: half, newton on
      pair build: half/bin/atomonly/newton
      stencil: half/bin/3d
      bin: standard
Per MPI rank memory allocation (min/avg/max) = 3.17 | 3.17 | 3.17 Mbytes
   Step         TotEng        Atoms        Volume    
         0  -19.690324942749         13  125000
Loop time of 8.803e-06 on 1 procs for 0 steps with 13 atoms

45.4% CPU use with 1 MPI tasks x no OpenMP threads

MPI task timing breakdown:
Section |  min time  |  avg time  |  max time  |%varavg| %total
---------------------------------------------------------------
Pair    | 0          | 0          | 0          |   0.0 |  0.00
Neigh   | 0          | 0          | 0          |   0.0 |  0.00
Comm    | 0          | 0          | 0          |   0.0 |  0.00
Output  | 0          | 0          | 0          |   0.0 |  0.00
Modify  | 0          | 0          | 0          |   0.0 |  0.00
Other   |            | 8.803e-06  |            |       |100.00

Nlocal:             13 ave          13 max          13 min
Histogram: 1 0 0 0 0 0 0 0 0 0
Nghost:              0 ave           0 max           0 min
Histogram: 1 0 0 0 0 0 0 0 0 0
Neighs:             78 ave          78 max          78 min
Histogram: 1 0 0 0 0 0 0 0 0 0

Total # of neighbors = 78
Ave neighs/atom = 6
Neighbor list builds = 0
Dangerous builds = 0
minimize 1.0e-8 1.0e-8 10000 10000
Per MPI rank memory allocation (min/avg/max) = 4.295 | 4.295 | 4.295 Mbytes
   Step         TotEng        Atoms        Volume    
         0  -19.690324942749         13  125000
        50  -41.732152636444         13  125000
Loop time of 0.00138218 on 1 procs for 50 steps with 13 atoms

42.3% CPU use with 1 MPI tasks x no OpenMP threads

Minimization stats:
  Stopping criterion = energy tolerance
  Energy initial, next-to-last, final = 
     -19.6903249427489  -41.7321522940528  -41.7321526364442
  Force two-norm initial, final = 90.669512 0.0018896054
  Force max component initial, final = 39.788859 0.00066951997
  Final line search alpha, max atom move = 1 0.00066951997
  Iterations, force evaluations = 50 88

MPI task timing breakdown:
Section |  min time  |  avg time  |  max time  |%varavg| %total
---------------------------------------------------------------
Pair    | 0.00090827 | 0.00090827 | 0.00090827 |   0.0 | 65.71
Neigh   | 7.486e-06  | 7.486e-06  | 7.486e-06  |   0.0 |  0.54
Comm    | 0.00019477 | 0.00019477 | 0.00019477 |   0.0 | 14.09
Output  | 0          | 0          | 0          |   0.0 |  0.00
Modify  | 0          | 0          | 0          |   0.0 |  0.00
Other   |            | 0.0002717  |            |       | 19.65

Nlocal:             13 ave          13 max          13 min
Histogram: 1 0 0 0 0 0 0 0 0 0
Nghost:              0 ave           0 max           0 min
Histogram: 1 0 0 0 0 0 0 0 0 0
Neighs:             78 ave          78 max          78 min
Histogram: 1 0 0 0 0 0 0 0 0 0

Total # of neighbors = 78
Ave neighs/atom = 6
Neighbor list builds = 1
Dangerous builds = 0
write_data min.geo
System init for write_data ...
run 0 pre no
   Step         TotEng        Atoms        Volume    
        50  -41.732152636444         13  125000
Loop time of 8.942e-06 on 1 procs for 0 steps with 13 atoms

67.1% CPU use with 1 MPI tasks x no OpenMP threads

MPI task timing breakdown:
Section |  min time  |  avg time  |  max time  |%varavg| %total
---------------------------------------------------------------
Pair    | 0          | 0          | 0          |   0.0 |  0.00
Neigh   | 0          | 0          | 0          |   0.0 |  0.00
Comm    | 0          | 0          | 0          |   0.0 |  0.00
Output  | 0          | 0          | 0          |   0.0 |  0.00
Modify  | 0          | 0          | 0          |   0.0 |  0.00
Other   |            | 8.942e-06  |            |       |100.00

Nlocal:             13 ave          13 max          13 min
Histogram: 1 0 0 0 0 0 0 0 0 0
Nghost:              0 ave           0 max           0 min
Histogram: 1 0 0 0 0 0 0 0 0 0
Neighs:             78 ave          78 max          78 min
Histogram: 1 0 0 0 0 0 0 0 0 0

Total # of neighbors = 78
Ave neighs/atom = 6
Neighbor list builds = 0
Dangerous builds = 0
clear
dimension 3
box tilt large
units metal
atom_style atomic
neighbor 2.0 bin
atom_modify map array sort 0 0
boundary f f f
read_data in.data
Reading data file ...
  orthogonal box = (0 0 0) to (50 50 50)
  1 by 1 by 1 MPI processor grid
  reading atoms ...
  13 atoms
  read_data CPU = 0.000 seconds
pair_style eam
pair_coeff * * Au.eam
thermo 1000
thermo_style custom step etotal atoms vol
thermo_modify format float %5.14g
variable potential equal pe/atoms
neigh_modify one 5000 delay 0 every 1 check yes
run 0 pre no
WARNING: No fixes with time integration, atoms won't move (../verlet.cpp:60)
Neighbor list info ...
  update every 1 steps, delay 0 steps, check yes
  max neighbors/atom: 5000, page size: 100000
  master list distance cutoff = 13.999
  ghost atom cutoff = 13.999
  binsize = 6.9995, bins = 8 8 8
  1 neighbor lists, perpetual/occasional/extra = 1 0 0
  (1) pair eam, perpetual
      attributes: half, newton on
      pair build: half/bin/atomonly/newton
      stencil: half/bin/3d
      bin: standard
Per MPI rank memory allocation (min/avg/max) = 3.17 | 3.17 | 3.17 Mbytes
   Step         TotEng        Atoms        Volume    
         0  -30.818353627945         13  125000
Loop time of 8.834e-06 on 1 procs for 0 steps with 13 atoms

56.6% CPU use with 1 MPI tasks x no OpenMP threads

MPI task timing breakdown:
Section |  min time  |  avg time  |  max time  |%varavg| %total
---------------------------------------------------------------
Pair    | 0          | 0          | 0          |   0.0 |  0.00
Neigh   | 0          | 0          | 0          |   0.0 |  0.00
Comm    | 0          | 0          | 0          |   0.0 |  0.00
Output  | 0          | 0          | 0          |   0.0 |  0.00
Modify  | 0          | 0          | 0          |   0.0 |  0.00
Other   |            | 8.834e-06  |            |       |100.00

Nlocal:             13 ave          13 max          13 min
Histogram: 1 0 0 0 0 0 0 0 0 0
Nghost:              0 ave           0 max           0 min
Histogram: 1 0 0 0 0 0 0 0 0 0
Neighs:             78 ave          78 max          78 min
Histogram: 1 0 0 0 0 0 0 0 0 0

Total # of neighbors = 78
Ave neighs/atom = 6
Neighbor list builds = 0
Dangerous builds = 0
minimize 1.0e-8 1.0e-8 10000 10000
Per MPI rank memory allocation (min/avg/max) = 4.295 | 4.295 | 4.295 Mbytes
   Step         TotEng        Atoms        Volume    
         0  -30.818353627945         13  125000
        50  -41.732152574005         13  125000
Loop time of 0.00132551 on 1 procs for 50 steps with 13 atoms

42.9% CPU use with 1 MPI tasks x no OpenMP threads

Minimization stats:
  Stopping criterion = energy tolerance
  Energy initial, next-to-last, final = 
     -30.8183536279452  -41.7321522337087   -41.732152574005
  Force two-norm initial, final = 45.515605 0.0019533985
  Force max component initial, final = 15.517578 0.00072239784
  Final line search alpha, max atom move = 1 0.00072239784
  Iterations, force evaluations = 50 83

MPI task timing breakdown:
Section |  min time  |  avg time  |  max time  |%varavg| %total
---------------------------------------------------------------
Pair    | 0.00086991 | 0.00086991 | 0.00086991 |   0.0 | 65.63
Neigh   | 1.4792e-05 | 1.4792e-05 | 1.4792e-05 |   0.0 |  1.12
Comm    | 0.00018266 | 0.00018266 | 0.00018266 |   0.0 | 13.78
Output  | 0          | 0          | 0          |   0.0 |  0.00
Modify  | 0          | 0          | 0          |   0.0 |  0.00
Other   |            | 0.0002581  |            |       | 19.48

Nlocal:             13 ave          13 max          13 min
Histogram: 1 0 0 0 0 0 0 0 0 0
Nghost:              0 ave           0 max           0 min
Histogram: 1 0 0 0 0 0 0 0 0 0
Neighs:             78 ave          78 max          78 min
Histogram: 1 0 0 0 0 0 0 0 0 0

Total # of neighbors = 78
Ave neighs/atom = 6
Neighbor list builds = 2
Dangerous builds = 0
write_data min.geo
System init for write_data ...
run 0 pre no
   Step         TotEng        Atoms        Volume    
        50  -41.732152574005         13  125000
Loop time of 8.774e-06 on 1 procs for 0 steps with 13 atoms

159.6% CPU use with 1 MPI tasks x no OpenMP threads

MPI task timing breakdown:
Section |  min time  |  avg time  |  max time  |%varavg| %total
---------------------------------------------------------------
Pair    | 0          | 0          | 0          |   0.0 |  0.00
Neigh   | 0          | 0          | 0          |   0.0 |  0.00
Comm    | 0          | 0          | 0          |   0.0 |  0.00
Output  | 0          | 0          | 0          |   0.0 |  0.00
Modify  | 0          | 0          | 0          |   0.0 |  0.00
Other   |            | 8.774e-06  |            |       |100.00

Nlocal:             13 ave          13 max          13 min
Histogram: 1 0 0 0 0 0 0 0 0 0
Nghost:              0 ave           0 max           0 min
Histogram: 1 0 0 0 0 0 0 0 0 0
Neighs:             78 ave          78 max          78 min
Histogram: 1 0 0 0 0 0 0 0 0 0

Total # of neighbors = 78
Ave neighs/atom = 6
Neighbor list builds = 0
Dangerous builds = 0
clear
dimension 3
box tilt large
units metal
atom_style atomic
neighbor 2.0 bin
atom_modify map array sort 0 0
boundary f f f
read_data in.data
Reading data file ...
  orthogonal box = (0 0 0) to (50 50 50)
  1 by 1 by 1 MPI processor grid
  reading atoms ...
  13 atoms
  read_data CPU = 0.000 seconds
pair_style eam
pair_coeff * * Au.eam
thermo 1000
thermo_style custom step etotal atoms vol
thermo_modify format float %5.14g
variable potential equal pe/atoms
neigh_modify one 5000 delay 0 every 1 check yes
run 0 pre no
WARNING: No fixes with time integration, atoms won't move (../verlet.cpp:60)
Neighbor list info ...
  update every 1 steps, delay 0 steps, check yes
  max neighbors/atom: 5000, page size: 100000
  master list distance cutoff = 13.999
  ghost atom cutoff = 13.999
  binsize = 6.9995, bins = 8 8 8
  1 neighbor lists, perpetual/occasional/extra = 1 0 0
  (1) pair eam, perpetual
      attributes: half, newton on
      pair build: half/bin/atomonly/newton
      stencil: half/bin/3d
      bin: standard
Per MPI rank memory allocation (min/avg/max) = 3.17 | 3.17 | 3.17 Mbytes
   Step         TotEng        Atoms        Volume    
         0  -31.890484880252         13  125000
Loop time of 6.996e-06 on 1 procs for 0 steps with 13 atoms

42.9% CPU use with 1 MPI tasks x no OpenMP threads

MPI task timing breakdown:
Section |  min time  |  avg time  |  max time  |%varavg| %total
---------------------------------------------------------------
Pair    | 0          | 0          | 0          |   0.0 |  0.00
Neigh   | 0          | 0          | 0          |   0.0 |  0.00
Comm    | 0          | 0          | 0          |   0.0 |  0.00
Output  | 0          | 0          | 0          |   0.0 |  0.00
Modify  | 0          | 0          | 0          |   0.0 |  0.00
Other   |            | 6.996e-06  |            |       |100.00

Nlocal:             13 ave          13 max          13 min
Histogram: 1 0 0 0 0 0 0 0 0 0
Nghost:              0 ave           0 max           0 min
Histogram: 1 0 0 0 0 0 0 0 0 0
Neighs:             78 ave          78 max          78 min
Histogram: 1 0 0 0 0 0 0 0 0 0

Total # of neighbors = 78
Ave neighs/atom = 6
Neighbor list builds = 0
Dangerous builds = 0
minimize 1.0e-8 1.0e-8 10000 10000
Per MPI rank memory allocation (min/avg/max) = 4.295 | 4.295 | 4.295 Mbytes
   Step         TotEng        Atoms        Volume    
         0  -31.890484880252         13  125000
        50  -41.732152694039         13  125000
Loop time of 0.00100419 on 1 procs for 50 steps with 13 atoms

43.8% CPU use with 1 MPI tasks x no OpenMP threads

Minimization stats:
  Stopping criterion = energy tolerance
  Energy initial, next-to-last, final = 
     -31.8904848802515  -41.7321523104909   -41.732152694039
  Force two-norm initial, final = 33.98581 0.0014491252
  Force max component initial, final = 18.935082 0.00063212458
  Final line search alpha, max atom move = 1 0.00063212458
  Iterations, force evaluations = 50 87

MPI task timing breakdown:
Section |  min time  |  avg time  |  max time  |%varavg| %total
---------------------------------------------------------------
Pair    | 0.0006574  | 0.0006574  | 0.0006574  |   0.0 | 65.47
Neigh   | 4.983e-06  | 4.983e-06  | 4.983e-06  |   0.0 |  0.50
Comm    | 0.00014714 | 0.00014714 | 0.00014714 |   0.0 | 14.65
Output  | 0          | 0          | 0          |   0.0 |  0.00
Modify  | 0          | 0          | 0          |   0.0 |  0.00
Other   |            | 0.0001947  |            |       | 19.39

Nlocal:             13 ave          13 max          13 min
Histogram: 1 0 0 0 0 0 0 0 0 0
Nghost:              0 ave           0 max           0 min
Histogram: 1 0 0 0 0 0 0 0 0 0
Neighs:             78 ave          78 max          78 min
Histogram: 1 0 0 0 0 0 0 0 0 0

Total # of neighbors = 78
Ave neighs/atom = 6
Neighbor list builds = 1
Dangerous builds = 0
write_data min.geo
System init for write_data ...
run 0 pre no
   Step         TotEng        Atoms        Volume    
        50  -41.732152694039         13  125000
Loop time of 7.584e-06 on 1 procs for 0 steps with 13 atoms

92.3% CPU use with 1 MPI tasks x no OpenMP threads

MPI task timing breakdown:
Section |  min time  |  avg time  |  max time  |%varavg| %total
---------------------------------------------------------------
Pair    | 0          | 0          | 0          |   0.0 |  0.00
Neigh   | 0          | 0          | 0          |   0.0 |  0.00
Comm    | 0          | 0          | 0          |   0.0 |  0.00
Output  | 0          | 0          | 0          |   0.0 |  0.00
Modify  | 0          | 0          | 0          |   0.0 |  0.00
Other   |            | 7.584e-06  |            |       |100.00

Nlocal:             13 ave          13 max          13 min
Histogram: 1 0 0 0 0 0 0 0 0 0
Nghost:              0 ave           0 max           0 min
Histogram: 1 0 0 0 0 0 0 0 0 0
Neighs:             78 ave          78 max          78 min
Histogram: 1 0 0 0 0 0 0 0 0 0

Total # of neighbors = 78
Ave neighs/atom = 6
Neighbor list builds = 0
Dangerous builds = 0
clear
dimension 3
box tilt large
units metal
atom_style atomic
neighbor 2.0 bin
atom_modify map array sort 0 0
boundary f f f
read_data in.data
Reading data file ...
  orthogonal box = (0 0 0) to (50 50 50)
  1 by 1 by 1 MPI processor grid
  reading atoms ...
  13 atoms
  read_data CPU = 0.000 seconds
pair_style eam
pair_coeff * * Au.eam
thermo 1000
thermo_style custom step etotal atoms vol
thermo_modify format float %5.14g
variable potential equal pe/atoms
neigh_modify one 5000 delay 0 every 1 check yes
run 0 pre no
WARNING: No fixes with time integration, atoms won't move (../verlet.cpp:60)
Neighbor list info ...
  update every 1 steps, delay 0 steps, check yes
  max neighbors/atom: 5000, page size: 100000
  master list distance cutoff = 13.999
  ghost atom cutoff = 13.999
  binsize = 6.9995, bins = 8 8 8
  1 neighbor lists, perpetual/occasional/extra = 1 0 0
  (1) pair eam, perpetual
      attributes: half, newton on
      pair build: half/bin/atomonly/newton
      stencil: half/bin/3d
      bin: standard
Per MPI rank memory allocation (min/avg/max) = 3.17 | 3.17 | 3.17 Mbytes
   Step         TotEng        Atoms        Volume    
         0  -27.88826116534         13  125000
Loop time of 7.297e-06 on 1 procs for 0 steps with 13 atoms

41.1% CPU use with 1 MPI tasks x no OpenMP threads

MPI task timing breakdown:
Section |  min time  |  avg time  |  max time  |%varavg| %total
---------------------------------------------------------------
Pair    | 0          | 0          | 0          |   0.0 |  0.00
Neigh   | 0          | 0          | 0          |   0.0 |  0.00
Comm    | 0          | 0          | 0          |   0.0 |  0.00
Output  | 0          | 0          | 0          |   0.0 |  0.00
Modify  | 0          | 0          | 0          |   0.0 |  0.00
Other   |            | 7.297e-06  |            |       |100.00

Nlocal:             13 ave          13 max          13 min
Histogram: 1 0 0 0 0 0 0 0 0 0
Nghost:              0 ave           0 max           0 min
Histogram: 1 0 0 0 0 0 0 0 0 0
Neighs:             78 ave          78 max          78 min
Histogram: 1 0 0 0 0 0 0 0 0 0

Total # of neighbors = 78
Ave neighs/atom = 6
Neighbor list builds = 0
Dangerous builds = 0
minimize 1.0e-8 1.0e-8 10000 10000
Per MPI rank memory allocation (min/avg/max) = 4.295 | 4.295 | 4.295 Mbytes
   Step         TotEng        Atoms        Volume    
         0  -27.88826116534         13  125000
        52  -41.564146287093         13  125000
Loop time of 0.000778845 on 1 procs for 52 steps with 13 atoms

99.8% CPU use with 1 MPI tasks x no OpenMP threads

Minimization stats:
  Stopping criterion = energy tolerance
  Energy initial, next-to-last, final = 
     -27.8882611653397   -41.564146019179  -41.5641462870933
  Force two-norm initial, final = 70.76353 0.0015532722
  Force max component initial, final = 31.373142 0.00054835411
  Final line search alpha, max atom move = 1 0.00054835411
  Iterations, force evaluations = 52 92

MPI task timing breakdown:
Section |  min time  |  avg time  |  max time  |%varavg| %total
---------------------------------------------------------------
Pair    | 0.00050527 | 0.00050527 | 0.00050527 |   0.0 | 64.87
Neigh   | 3.939e-06  | 3.939e-06  | 3.939e-06  |   0.0 |  0.51
Comm    | 0.00011717 | 0.00011717 | 0.00011717 |   0.0 | 15.04
Output  | 0          | 0          | 0          |   0.0 |  0.00
Modify  | 0          | 0          | 0          |   0.0 |  0.00
Other   |            | 0.0001525  |            |       | 19.58

Nlocal:             13 ave          13 max          13 min
Histogram: 1 0 0 0 0 0 0 0 0 0
Nghost:              0 ave           0 max           0 min
Histogram: 1 0 0 0 0 0 0 0 0 0
Neighs:             78 ave          78 max          78 min
Histogram: 1 0 0 0 0 0 0 0 0 0

Total # of neighbors = 78
Ave neighs/atom = 6
Neighbor list builds = 1
Dangerous builds = 0
write_data min.geo
System init for write_data ...
run 0 pre no
   Step         TotEng        Atoms        Volume    
        52  -41.564146287093         13  125000
Loop time of 6.943e-06 on 1 procs for 0 steps with 13 atoms

158.4% CPU use with 1 MPI tasks x no OpenMP threads

MPI task timing breakdown:
Section |  min time  |  avg time  |  max time  |%varavg| %total
---------------------------------------------------------------
Pair    | 0          | 0          | 0          |   0.0 |  0.00
Neigh   | 0          | 0          | 0          |   0.0 |  0.00
Comm    | 0          | 0          | 0          |   0.0 |  0.00
Output  | 0          | 0          | 0          |   0.0 |  0.00
Modify  | 0          | 0          | 0          |   0.0 |  0.00
Other   |            | 6.943e-06  |            |       |100.00

Nlocal:             13 ave          13 max          13 min
Histogram: 1 0 0 0 0 0 0 0 0 0
Nghost:              0 ave           0 max           0 min
Histogram: 1 0 0 0 0 0 0 0 0 0
Neighs:             78 ave          78 max          78 min
Histogram: 1 0 0 0 0 0 0 0 0 0

Total # of neighbors = 78
Ave neighs/atom = 6
Neighbor list builds = 0
Dangerous builds = 0
clear
dimension 3
box tilt large
units metal
atom_style atomic
neighbor 2.0 bin
atom_modify map array sort 0 0
boundary f f f
read_data in.data
Reading data file ...
  orthogonal box = (0 0 0) to (50 50 50)
  1 by 1 by 1 MPI processor grid
  reading atoms ...
  13 atoms
  read_data CPU = 0.000 seconds
pair_style eam
pair_coeff * * Au.eam
thermo 1000
thermo_style custom step etotal atoms vol
thermo_modify format float %5.14g
variable potential equal pe/atoms
neigh_modify one 5000 delay 0 every 1 check yes
run 0 pre no
WARNING: No fixes with time integration, atoms won't move (../verlet.cpp:60)
Neighbor list info ...
  update every 1 steps, delay 0 steps, check yes
  max neighbors/atom: 5000, page size: 100000
  master list distance cutoff = 13.999
  ghost atom cutoff = 13.999
  binsize = 6.9995, bins = 8 8 8
  1 neighbor lists, perpetual/occasional/extra = 1 0 0
  (1) pair eam, perpetual
      attributes: half, newton on
      pair build: half/bin/atomonly/newton
      stencil: half/bin/3d
      bin: standard
Per MPI rank memory allocation (min/avg/max) = 3.17 | 3.17 | 3.17 Mbytes
   Step         TotEng        Atoms        Volume    
         0  -28.107781700143         13  125000
Loop time of 7.012e-06 on 1 procs for 0 steps with 13 atoms

57.0% CPU use with 1 MPI tasks x no OpenMP threads

MPI task timing breakdown:
Section |  min time  |  avg time  |  max time  |%varavg| %total
---------------------------------------------------------------
Pair    | 0          | 0          | 0          |   0.0 |  0.00
Neigh   | 0          | 0          | 0          |   0.0 |  0.00
Comm    | 0          | 0          | 0          |   0.0 |  0.00
Output  | 0          | 0          | 0          |   0.0 |  0.00
Modify  | 0          | 0          | 0          |   0.0 |  0.00
Other   |            | 7.012e-06  |            |       |100.00

Nlocal:             13 ave          13 max          13 min
Histogram: 1 0 0 0 0 0 0 0 0 0
Nghost:              0 ave           0 max           0 min
Histogram: 1 0 0 0 0 0 0 0 0 0
Neighs:             78 ave          78 max          78 min
Histogram: 1 0 0 0 0 0 0 0 0 0

Total # of neighbors = 78
Ave neighs/atom = 6
Neighbor list builds = 0
Dangerous builds = 0
minimize 1.0e-8 1.0e-8 10000 10000
Per MPI rank memory allocation (min/avg/max) = 4.295 | 4.295 | 4.295 Mbytes
   Step         TotEng        Atoms        Volume    
         0  -28.107781700143         13  125000
        79  -41.657982360022         13  125000
Loop time of 0.00119705 on 1 procs for 79 steps with 13 atoms

83.1% CPU use with 1 MPI tasks x no OpenMP threads

Minimization stats:
  Stopping criterion = energy tolerance
  Energy initial, next-to-last, final = 
     -28.1077817001431  -41.6579820195607   -41.657982360022
  Force two-norm initial, final = 43.875183 0.0021416096
  Force max component initial, final = 18.605367 0.00066684925
  Final line search alpha, max atom move = 1 0.00066684925
  Iterations, force evaluations = 79 139

MPI task timing breakdown:
Section |  min time  |  avg time  |  max time  |%varavg| %total
---------------------------------------------------------------
Pair    | 0.00079422 | 0.00079422 | 0.00079422 |   0.0 | 66.35
Neigh   | 7.848e-06  | 7.848e-06  | 7.848e-06  |   0.0 |  0.66
Comm    | 0.00017692 | 0.00017692 | 0.00017692 |   0.0 | 14.78
Output  | 0          | 0          | 0          |   0.0 |  0.00
Modify  | 0          | 0          | 0          |   0.0 |  0.00
Other   |            | 0.0002181  |            |       | 18.22

Nlocal:             13 ave          13 max          13 min
Histogram: 1 0 0 0 0 0 0 0 0 0
Nghost:              0 ave           0 max           0 min
Histogram: 1 0 0 0 0 0 0 0 0 0
Neighs:             78 ave          78 max          78 min
Histogram: 1 0 0 0 0 0 0 0 0 0

Total # of neighbors = 78
Ave neighs/atom = 6
Neighbor list builds = 2
Dangerous builds = 0
write_data min.geo
System init for write_data ...
run 0 pre no
   Step         TotEng        Atoms        Volume    
        79  -41.657982360022         13  125000
Loop time of 1.474e-05 on 1 procs for 0 steps with 13 atoms

156.0% CPU use with 1 MPI tasks x no OpenMP threads

MPI task timing breakdown:
Section |  min time  |  avg time  |  max time  |%varavg| %total
---------------------------------------------------------------
Pair    | 0          | 0          | 0          |   0.0 |  0.00
Neigh   | 0          | 0          | 0          |   0.0 |  0.00
Comm    | 0          | 0          | 0          |   0.0 |  0.00
Output  | 0          | 0          | 0          |   0.0 |  0.00
Modify  | 0          | 0          | 0          |   0.0 |  0.00
Other   |            | 1.474e-05  |            |       |100.00

Nlocal:             13 ave          13 max          13 min
Histogram: 1 0 0 0 0 0 0 0 0 0
Nghost:              0 ave           0 max           0 min
Histogram: 1 0 0 0 0 0 0 0 0 0
Neighs:             78 ave          78 max          78 min
Histogram: 1 0 0 0 0 0 0 0 0 0

Total # of neighbors = 78
Ave neighs/atom = 6
Neighbor list builds = 0
Dangerous builds = 0
clear
dimension 3
box tilt large
units metal
atom_style atomic
neighbor 2.0 bin
atom_modify map array sort 0 0
boundary f f f
read_data in.data
Reading data file ...
  orthogonal box = (0 0 0) to (50 50 50)
  1 by 1 by 1 MPI processor grid
  reading atoms ...
  13 atoms
  read_data CPU = 0.000 seconds
pair_style eam
pair_coeff * * Au.eam
thermo 1000
thermo_style custom step etotal atoms vol
thermo_modify format float %5.14g
variable potential equal pe/atoms
neigh_modify one 5000 delay 0 every 1 check yes
run 0 pre no
WARNING: No fixes with time integration, atoms won't move (../verlet.cpp:60)
Neighbor list info ...
  update every 1 steps, delay 0 steps, check yes
  max neighbors/atom: 5000, page size: 100000
  master list distance cutoff = 13.999
  ghost atom cutoff = 13.999
  binsize = 6.9995, bins = 8 8 8
  1 neighbor lists, perpetual/occasional/extra = 1 0 0
  (1) pair eam, perpetual
      attributes: half, newton on
      pair build: half/bin/atomonly/newton
      stencil: half/bin/3d
      bin: standard
Per MPI rank memory allocation (min/avg/max) = 3.17 | 3.17 | 3.17 Mbytes
   Step         TotEng        Atoms        Volume    
         0  -29.785334991992         13  125000
Loop time of 7.017e-06 on 1 procs for 0 steps with 13 atoms

42.8% CPU use with 1 MPI tasks x no OpenMP threads

MPI task timing breakdown:
Section |  min time  |  avg time  |  max time  |%varavg| %total
---------------------------------------------------------------
Pair    | 0          | 0          | 0          |   0.0 |  0.00
Neigh   | 0          | 0          | 0          |   0.0 |  0.00
Comm    | 0          | 0          | 0          |   0.0 |  0.00
Output  | 0          | 0          | 0          |   0.0 |  0.00
Modify  | 0          | 0          | 0          |   0.0 |  0.00
Other   |            | 7.017e-06  |            |       |100.00

Nlocal:             13 ave          13 max          13 min
Histogram: 1 0 0 0 0 0 0 0 0 0
Nghost:              0 ave           0 max           0 min
Histogram: 1 0 0 0 0 0 0 0 0 0
Neighs:             78 ave          78 max          78 min
Histogram: 1 0 0 0 0 0 0 0 0 0

Total # of neighbors = 78
Ave neighs/atom = 6
Neighbor list builds = 0
Dangerous builds = 0
minimize 1.0e-8 1.0e-8 10000 10000
Per MPI rank memory allocation (min/avg/max) = 4.295 | 4.295 | 4.295 Mbytes
   Step         TotEng        Atoms        Volume    
         0  -29.785334991992         13  125000
        78  -41.762475445969         13  125000
Loop time of 0.00113916 on 1 procs for 78 steps with 13 atoms

88.5% CPU use with 1 MPI tasks x no OpenMP threads

Minimization stats:
  Stopping criterion = energy tolerance
  Energy initial, next-to-last, final = 
     -29.7853349919915  -41.7624751952812  -41.7624754459693
  Force two-norm initial, final = 34.34627 0.0014490263
  Force max component initial, final = 19.974478 0.00054149584
  Final line search alpha, max atom move = 1 0.00054149584
  Iterations, force evaluations = 78 135

MPI task timing breakdown:
Section |  min time  |  avg time  |  max time  |%varavg| %total
---------------------------------------------------------------
Pair    | 0.00074775 | 0.00074775 | 0.00074775 |   0.0 | 65.64
Neigh   | 7.673e-06  | 7.673e-06  | 7.673e-06  |   0.0 |  0.67
Comm    | 0.00017137 | 0.00017137 | 0.00017137 |   0.0 | 15.04
Output  | 0          | 0          | 0          |   0.0 |  0.00
Modify  | 0          | 0          | 0          |   0.0 |  0.00
Other   |            | 0.0002124  |            |       | 18.64

Nlocal:             13 ave          13 max          13 min
Histogram: 1 0 0 0 0 0 0 0 0 0
Nghost:              0 ave           0 max           0 min
Histogram: 1 0 0 0 0 0 0 0 0 0
Neighs:             78 ave          78 max          78 min
Histogram: 1 0 0 0 0 0 0 0 0 0

Total # of neighbors = 78
Ave neighs/atom = 6
Neighbor list builds = 2
Dangerous builds = 0
write_data min.geo
System init for write_data ...
run 0 pre no
   Step         TotEng        Atoms        Volume    
        78  -41.762475445969         13  125000
Loop time of 6.973e-06 on 1 procs for 0 steps with 13 atoms

157.8% CPU use with 1 MPI tasks x no OpenMP threads

MPI task timing breakdown:
Section |  min time  |  avg time  |  max time  |%varavg| %total
---------------------------------------------------------------
Pair    | 0          | 0          | 0          |   0.0 |  0.00
Neigh   | 0          | 0          | 0          |   0.0 |  0.00
Comm    | 0          | 0          | 0          |   0.0 |  0.00
Output  | 0          | 0          | 0          |   0.0 |  0.00
Modify  | 0          | 0          | 0          |   0.0 |  0.00
Other   |            | 6.973e-06  |            |       |100.00

Nlocal:             13 ave          13 max          13 min
Histogram: 1 0 0 0 0 0 0 0 0 0
Nghost:              0 ave           0 max           0 min
Histogram: 1 0 0 0 0 0 0 0 0 0
Neighs:             78 ave          78 max          78 min
Histogram: 1 0 0 0 0 0 0 0 0 0

Total # of neighbors = 78
Ave neighs/atom = 6
Neighbor list builds = 0
Dangerous builds = 0
clear
dimension 3
box tilt large
units metal
atom_style atomic
neighbor 2.0 bin
atom_modify map array sort 0 0
boundary f f f
read_data in.data
Reading data file ...
  orthogonal box = (0 0 0) to (50 50 50)
  1 by 1 by 1 MPI processor grid
  reading atoms ...
  13 atoms
  read_data CPU = 0.000 seconds
pair_style eam
pair_coeff * * Au.eam
thermo 1000
thermo_style custom step etotal atoms vol
thermo_modify format float %5.14g
variable potential equal pe/atoms
neigh_modify one 5000 delay 0 every 1 check yes
run 0 pre no
WARNING: No fixes with time integration, atoms won't move (../verlet.cpp:60)
Neighbor list info ...
  update every 1 steps, delay 0 steps, check yes
  max neighbors/atom: 5000, page size: 100000
  master list distance cutoff = 13.999
  ghost atom cutoff = 13.999
  binsize = 6.9995, bins = 8 8 8
  1 neighbor lists, perpetual/occasional/extra = 1 0 0
  (1) pair eam, perpetual
      attributes: half, newton on
      pair build: half/bin/atomonly/newton
      stencil: half/bin/3d
      bin: standard
Per MPI rank memory allocation (min/avg/max) = 3.17 | 3.17 | 3.17 Mbytes
   Step         TotEng        Atoms        Volume    
         0  -20.858925423359         13  125000
Loop time of 7.122e-06 on 1 procs for 0 steps with 13 atoms

56.2% CPU use with 1 MPI tasks x no OpenMP threads

MPI task timing breakdown:
Section |  min time  |  avg time  |  max time  |%varavg| %total
---------------------------------------------------------------
Pair    | 0          | 0          | 0          |   0.0 |  0.00
Neigh   | 0          | 0          | 0          |   0.0 |  0.00
Comm    | 0          | 0          | 0          |   0.0 |  0.00
Output  | 0          | 0          | 0          |   0.0 |  0.00
Modify  | 0          | 0          | 0          |   0.0 |  0.00
Other   |            | 7.122e-06  |            |       |100.00

Nlocal:             13 ave          13 max          13 min
Histogram: 1 0 0 0 0 0 0 0 0 0
Nghost:              0 ave           0 max           0 min
Histogram: 1 0 0 0 0 0 0 0 0 0
Neighs:             78 ave          78 max          78 min
Histogram: 1 0 0 0 0 0 0 0 0 0

Total # of neighbors = 78
Ave neighs/atom = 6
Neighbor list builds = 0
Dangerous builds = 0
minimize 1.0e-8 1.0e-8 10000 10000
Per MPI rank memory allocation (min/avg/max) = 4.295 | 4.295 | 4.295 Mbytes
   Step         TotEng        Atoms        Volume    
         0  -20.858925423359         13  125000
        58  -41.56414590088         13  125000
Loop time of 0.000859032 on 1 procs for 58 steps with 13 atoms

80.7% CPU use with 1 MPI tasks x no OpenMP threads

Minimization stats:
  Stopping criterion = energy tolerance
  Energy initial, next-to-last, final = 
     -20.8589254233593  -41.5641455851685    -41.56414590088
  Force two-norm initial, final = 78.932309 0.001950178
  Force max component initial, final = 40.980836 0.00085530374
  Final line search alpha, max atom move = 1 0.00085530374
  Iterations, force evaluations = 58 101

MPI task timing breakdown:
Section |  min time  |  avg time  |  max time  |%varavg| %total
---------------------------------------------------------------
Pair    | 0.00056269 | 0.00056269 | 0.00056269 |   0.0 | 65.50
Neigh   | 3.91e-06   | 3.91e-06   | 3.91e-06   |   0.0 |  0.46
Comm    | 0.00012813 | 0.00012813 | 0.00012813 |   0.0 | 14.92
Output  | 0          | 0          | 0          |   0.0 |  0.00
Modify  | 0          | 0          | 0          |   0.0 |  0.00
Other   |            | 0.0001643  |            |       | 19.13

Nlocal:             13 ave          13 max          13 min
Histogram: 1 0 0 0 0 0 0 0 0 0
Nghost:              0 ave           0 max           0 min
Histogram: 1 0 0 0 0 0 0 0 0 0
Neighs:             78 ave          78 max          78 min
Histogram: 1 0 0 0 0 0 0 0 0 0

Total # of neighbors = 78
Ave neighs/atom = 6
Neighbor list builds = 1
Dangerous builds = 0
write_data min.geo
System init for write_data ...
run 0 pre no
   Step         TotEng        Atoms        Volume    
        58  -41.56414590088         13  125000
Loop time of 8.908e-06 on 1 procs for 0 steps with 13 atoms

168.4% CPU use with 1 MPI tasks x no OpenMP threads

MPI task timing breakdown:
Section |  min time  |  avg time  |  max time  |%varavg| %total
---------------------------------------------------------------
Pair    | 0          | 0          | 0          |   0.0 |  0.00
Neigh   | 0          | 0          | 0          |   0.0 |  0.00
Comm    | 0          | 0          | 0          |   0.0 |  0.00
Output  | 0          | 0          | 0          |   0.0 |  0.00
Modify  | 0          | 0          | 0          |   0.0 |  0.00
Other   |            | 8.908e-06  |            |       |100.00

Nlocal:             13 ave          13 max          13 min
Histogram: 1 0 0 0 0 0 0 0 0 0
Nghost:              0 ave           0 max           0 min
Histogram: 1 0 0 0 0 0 0 0 0 0
Neighs:             78 ave          78 max          78 min
Histogram: 1 0 0 0 0 0 0 0 0 0

Total # of neighbors = 78
Ave neighs/atom = 6
Neighbor list builds = 0
Dangerous builds = 0
clear
dimension 3
box tilt large
units metal
atom_style atomic
neighbor 2.0 bin
atom_modify map array sort 0 0
boundary f f f
read_data in.data
Reading data file ...
  orthogonal box = (0 0 0) to (50 50 50)
  1 by 1 by 1 MPI processor grid
  reading atoms ...
  13 atoms
  read_data CPU = 0.000 seconds
pair_style eam
pair_coeff * * Au.eam
thermo 1000
thermo_style custom step etotal atoms vol
thermo_modify format float %5.14g
variable potential equal pe/atoms
neigh_modify one 5000 delay 0 every 1 check yes
run 0 pre no
WARNING: No fixes with time integration, atoms won't move (../verlet.cpp:60)
Neighbor list info ...
  update every 1 steps, delay 0 steps, check yes
  max neighbors/atom: 5000, page size: 100000
  master list distance cutoff = 13.999
  ghost atom cutoff = 13.999
  binsize = 6.9995, bins = 8 8 8
  1 neighbor lists, perpetual/occasional/extra = 1 0 0
  (1) pair eam, perpetual
      attributes: half, newton on
      pair build: half/bin/atomonly/newton
      stencil: half/bin/3d
      bin: standard
Per MPI rank memory allocation (min/avg/max) = 3.17 | 3.17 | 3.17 Mbytes
   Step         TotEng        Atoms        Volume    
         0  -18.415820150023         13  125000
Loop time of 9.118e-06 on 1 procs for 0 steps with 13 atoms

43.9% CPU use with 1 MPI tasks x no OpenMP threads

MPI task timing breakdown:
Section |  min time  |  avg time  |  max time  |%varavg| %total
---------------------------------------------------------------
Pair    | 0          | 0          | 0          |   0.0 |  0.00
Neigh   | 0          | 0          | 0          |   0.0 |  0.00
Comm    | 0          | 0          | 0          |   0.0 |  0.00
Output  | 0          | 0          | 0          |   0.0 |  0.00
Modify  | 0          | 0          | 0          |   0.0 |  0.00
Other   |            | 9.118e-06  |            |       |100.00

Nlocal:             13 ave          13 max          13 min
Histogram: 1 0 0 0 0 0 0 0 0 0
Nghost:              0 ave           0 max           0 min
Histogram: 1 0 0 0 0 0 0 0 0 0
Neighs:             78 ave          78 max          78 min
Histogram: 1 0 0 0 0 0 0 0 0 0

Total # of neighbors = 78
Ave neighs/atom = 6
Neighbor list builds = 0
Dangerous builds = 0
minimize 1.0e-8 1.0e-8 10000 10000
Per MPI rank memory allocation (min/avg/max) = 4.295 | 4.295 | 4.295 Mbytes
   Step         TotEng        Atoms        Volume    
         0  -18.415820150023         13  125000
        39  -41.732152126283         13  125000
Loop time of 0.00102431 on 1 procs for 39 steps with 13 atoms

46.4% CPU use with 1 MPI tasks x no OpenMP threads

Minimization stats:
  Stopping criterion = energy tolerance
  Energy initial, next-to-last, final = 
     -18.4158201500233  -41.7321518237606  -41.7321521262828
  Force two-norm initial, final = 102.34108 0.001810802
  Force max component initial, final = 51.121675 0.00068358593
  Final line search alpha, max atom move = 1 0.00068358593
  Iterations, force evaluations = 39 63

MPI task timing breakdown:
Section |  min time  |  avg time  |  max time  |%varavg| %total
---------------------------------------------------------------
Pair    | 0.00067294 | 0.00067294 | 0.00067294 |   0.0 | 65.70
Neigh   | 7.459e-06  | 7.459e-06  | 7.459e-06  |   0.0 |  0.73
Comm    | 0.0001398  | 0.0001398  | 0.0001398  |   0.0 | 13.65
Output  | 0          | 0          | 0          |   0.0 |  0.00
Modify  | 0          | 0          | 0          |   0.0 |  0.00
Other   |            | 0.0002041  |            |       | 19.93

Nlocal:             13 ave          13 max          13 min
Histogram: 1 0 0 0 0 0 0 0 0 0
Nghost:              0 ave           0 max           0 min
Histogram: 1 0 0 0 0 0 0 0 0 0
Neighs:             78 ave          78 max          78 min
Histogram: 1 0 0 0 0 0 0 0 0 0

Total # of neighbors = 78
Ave neighs/atom = 6
Neighbor list builds = 1
Dangerous builds = 0
write_data min.geo
System init for write_data ...
run 0 pre no
   Step         TotEng        Atoms        Volume    
        39  -41.732152126283         13  125000
Loop time of 8.099e-06 on 1 procs for 0 steps with 13 atoms

74.1% CPU use with 1 MPI tasks x no OpenMP threads

MPI task timing breakdown:
Section |  min time  |  avg time  |  max time  |%varavg| %total
---------------------------------------------------------------
Pair    | 0          | 0          | 0          |   0.0 |  0.00
Neigh   | 0          | 0          | 0          |   0.0 |  0.00
Comm    | 0          | 0          | 0          |   0.0 |  0.00
Output  | 0          | 0          | 0          |   0.0 |  0.00
Modify  | 0          | 0          | 0          |   0.0 |  0.00
Other   |            | 8.099e-06  |            |       |100.00

Nlocal:             13 ave          13 max          13 min
Histogram: 1 0 0 0 0 0 0 0 0 0
Nghost:              0 ave           0 max           0 min
Histogram: 1 0 0 0 0 0 0 0 0 0
Neighs:             78 ave          78 max          78 min
Histogram: 1 0 0 0 0 0 0 0 0 0

Total # of neighbors = 78
Ave neighs/atom = 6
Neighbor list builds = 0
Dangerous builds = 0
clear
dimension 3
box tilt large
units metal
atom_style atomic
neighbor 2.0 bin
atom_modify map array sort 0 0
boundary f f f
read_data in.data
Reading data file ...
  orthogonal box = (0 0 0) to (50 50 50)
  1 by 1 by 1 MPI processor grid
  reading atoms ...
  13 atoms
  read_data CPU = 0.000 seconds
pair_style eam
pair_coeff * * Au.eam
thermo 1000
thermo_style custom step etotal atoms vol
thermo_modify format float %5.14g
variable potential equal pe/atoms
neigh_modify one 5000 delay 0 every 1 check yes
run 0 pre no
WARNING: No fixes with time integration, atoms won't move (../verlet.cpp:60)
Neighbor list info ...
  update every 1 steps, delay 0 steps, check yes
  max neighbors/atom: 5000, page size: 100000
  master list distance cutoff = 13.999
  ghost atom cutoff = 13.999
  binsize = 6.9995, bins = 8 8 8
  1 neighbor lists, perpetual/occasional/extra = 1 0 0
  (1) pair eam, perpetual
      attributes: half, newton on
      pair build: half/bin/atomonly/newton
      stencil: half/bin/3d
      bin: standard
Per MPI rank memory allocation (min/avg/max) = 3.17 | 3.17 | 3.17 Mbytes
   Step         TotEng        Atoms        Volume    
         0  -26.300885734119         13  125000
Loop time of 6.941e-06 on 1 procs for 0 steps with 13 atoms

57.6% CPU use with 1 MPI tasks x no OpenMP threads

MPI task timing breakdown:
Section |  min time  |  avg time  |  max time  |%varavg| %total
---------------------------------------------------------------
Pair    | 0          | 0          | 0          |   0.0 |  0.00
Neigh   | 0          | 0          | 0          |   0.0 |  0.00
Comm    | 0          | 0          | 0          |   0.0 |  0.00
Output  | 0          | 0          | 0          |   0.0 |  0.00
Modify  | 0          | 0          | 0          |   0.0 |  0.00
Other   |            | 6.941e-06  |            |       |100.00

Nlocal:             13 ave          13 max          13 min
Histogram: 1 0 0 0 0 0 0 0 0 0
Nghost:              0 ave           0 max           0 min
Histogram: 1 0 0 0 0 0 0 0 0 0
Neighs:             78 ave          78 max          78 min
Histogram: 1 0 0 0 0 0 0 0 0 0

Total # of neighbors = 78
Ave neighs/atom = 6
Neighbor list builds = 0
Dangerous builds = 0
minimize 1.0e-8 1.0e-8 10000 10000
Per MPI rank memory allocation (min/avg/max) = 4.295 | 4.295 | 4.295 Mbytes
   Step         TotEng        Atoms        Volume    
         0  -26.300885734119         13  125000
        61  -41.783001744095         13  125000
Loop time of 0.000928206 on 1 procs for 61 steps with 13 atoms

99.8% CPU use with 1 MPI tasks x no OpenMP threads

Minimization stats:
  Stopping criterion = energy tolerance
  Energy initial, next-to-last, final = 
     -26.3008857341193  -41.7830014363708  -41.7830017440946
  Force two-norm initial, final = 38.629527 0.0022035873
  Force max component initial, final = 18.508166 0.00081981906
  Final line search alpha, max atom move = 1 0.00081981906
  Iterations, force evaluations = 61 102

MPI task timing breakdown:
Section |  min time  |  avg time  |  max time  |%varavg| %total
---------------------------------------------------------------
Pair    | 0.00060499 | 0.00060499 | 0.00060499 |   0.0 | 65.18
Neigh   | 8.27e-06   | 8.27e-06   | 8.27e-06   |   0.0 |  0.89
Comm    | 0.0001438  | 0.0001438  | 0.0001438  |   0.0 | 15.49
Output  | 0          | 0          | 0          |   0.0 |  0.00
Modify  | 0          | 0          | 0          |   0.0 |  0.00
Other   |            | 0.0001712  |            |       | 18.44

Nlocal:             13 ave          13 max          13 min
Histogram: 1 0 0 0 0 0 0 0 0 0
Nghost:              0 ave           0 max           0 min
Histogram: 1 0 0 0 0 0 0 0 0 0
Neighs:             78 ave          78 max          78 min
Histogram: 1 0 0 0 0 0 0 0 0 0

Total # of neighbors = 78
Ave neighs/atom = 6
Neighbor list builds = 2
Dangerous builds = 0
write_data min.geo
System init for write_data ...
run 0 pre no
   Step         TotEng        Atoms        Volume    
        61  -41.783001744095         13  125000
Loop time of 7.146e-06 on 1 procs for 0 steps with 13 atoms

153.9% CPU use with 1 MPI tasks x no OpenMP threads

MPI task timing breakdown:
Section |  min time  |  avg time  |  max time  |%varavg| %total
---------------------------------------------------------------
Pair    | 0          | 0          | 0          |   0.0 |  0.00
Neigh   | 0          | 0          | 0          |   0.0 |  0.00
Comm    | 0          | 0          | 0          |   0.0 |  0.00
Output  | 0          | 0          | 0          |   0.0 |  0.00
Modify  | 0          | 0          | 0          |   0.0 |  0.00
Other   |            | 7.146e-06  |            |       |100.00

Nlocal:             13 ave          13 max          13 min
Histogram: 1 0 0 0 0 0 0 0 0 0
Nghost:              0 ave           0 max           0 min
Histogram: 1 0 0 0 0 0 0 0 0 0
Neighs:             78 ave          78 max          78 min
Histogram: 1 0 0 0 0 0 0 0 0 0

Total # of neighbors = 78
Ave neighs/atom = 6
Neighbor list builds = 0
Dangerous builds = 0
clear
dimension 3
box tilt large
units metal
atom_style atomic
neighbor 2.0 bin
atom_modify map array sort 0 0
boundary f f f
read_data in.data
Reading data file ...
  orthogonal box = (0 0 0) to (50 50 50)
  1 by 1 by 1 MPI processor grid
  reading atoms ...
  13 atoms
  read_data CPU = 0.000 seconds
pair_style eam
pair_coeff * * Au.eam
thermo 1000
thermo_style custom step etotal atoms vol
thermo_modify format float %5.14g
variable potential equal pe/atoms
neigh_modify one 5000 delay 0 every 1 check yes
run 0 pre no
WARNING: No fixes with time integration, atoms won't move (../verlet.cpp:60)
Neighbor list info ...
  update every 1 steps, delay 0 steps, check yes
  max neighbors/atom: 5000, page size: 100000
  master list distance cutoff = 13.999
  ghost atom cutoff = 13.999
  binsize = 6.9995, bins = 8 8 8
  1 neighbor lists, perpetual/occasional/extra = 1 0 0
  (1) pair eam, perpetual
      attributes: half, newton on
      pair build: half/bin/atomonly/newton
      stencil: half/bin/3d
      bin: standard
Per MPI rank memory allocation (min/avg/max) = 3.17 | 3.17 | 3.17 Mbytes
   Step         TotEng        Atoms        Volume    
         0  -23.831956278757         13  125000
Loop time of 7.017e-06 on 1 procs for 0 steps with 13 atoms

57.0% CPU use with 1 MPI tasks x no OpenMP threads

MPI task timing breakdown:
Section |  min time  |  avg time  |  max time  |%varavg| %total
---------------------------------------------------------------
Pair    | 0          | 0          | 0          |   0.0 |  0.00
Neigh   | 0          | 0          | 0          |   0.0 |  0.00
Comm    | 0          | 0          | 0          |   0.0 |  0.00
Output  | 0          | 0          | 0          |   0.0 |  0.00
Modify  | 0          | 0          | 0          |   0.0 |  0.00
Other   |            | 7.017e-06  |            |       |100.00

Nlocal:             13 ave          13 max          13 min
Histogram: 1 0 0 0 0 0 0 0 0 0
Nghost:              0 ave           0 max           0 min
Histogram: 1 0 0 0 0 0 0 0 0 0
Neighs:             78 ave          78 max          78 min
Histogram: 1 0 0 0 0 0 0 0 0 0

Total # of neighbors = 78
Ave neighs/atom = 6
Neighbor list builds = 0
Dangerous builds = 0
minimize 1.0e-8 1.0e-8 10000 10000
Per MPI rank memory allocation (min/avg/max) = 4.295 | 4.295 | 4.295 Mbytes
   Step         TotEng        Atoms        Volume    
         0  -23.831956278757         13  125000
        41  -41.564145524022         13  125000
Loop time of 0.000615451 on 1 procs for 41 steps with 13 atoms

99.8% CPU use with 1 MPI tasks x no OpenMP threads

Minimization stats:
  Stopping criterion = energy tolerance
  Energy initial, next-to-last, final = 
     -23.8319562787569  -41.5641451919821  -41.5641455240217
  Force two-norm initial, final = 60.61187 0.002193308
  Force max component initial, final = 27.09459 0.00067861561
  Final line search alpha, max atom move = 1 0.00067861561
  Iterations, force evaluations = 41 73

MPI task timing breakdown:
Section |  min time  |  avg time  |  max time  |%varavg| %total
---------------------------------------------------------------
Pair    | 0.0004001  | 0.0004001  | 0.0004001  |   0.0 | 65.01
Neigh   | 0          | 0          | 0          |   0.0 |  0.00
Comm    | 9.3478e-05 | 9.3478e-05 | 9.3478e-05 |   0.0 | 15.19
Output  | 0          | 0          | 0          |   0.0 |  0.00
Modify  | 0          | 0          | 0          |   0.0 |  0.00
Other   |            | 0.0001219  |            |       | 19.80

Nlocal:             13 ave          13 max          13 min
Histogram: 1 0 0 0 0 0 0 0 0 0
Nghost:              0 ave           0 max           0 min
Histogram: 1 0 0 0 0 0 0 0 0 0
Neighs:             78 ave          78 max          78 min
Histogram: 1 0 0 0 0 0 0 0 0 0

Total # of neighbors = 78
Ave neighs/atom = 6
Neighbor list builds = 0
Dangerous builds = 0
write_data min.geo
System init for write_data ...
run 0 pre no
   Step         TotEng        Atoms        Volume    
        41  -41.564145524022         13  125000
Loop time of 6.94e-06 on 1 procs for 0 steps with 13 atoms

158.5% CPU use with 1 MPI tasks x no OpenMP threads

MPI task timing breakdown:
Section |  min time  |  avg time  |  max time  |%varavg| %total
---------------------------------------------------------------
Pair    | 0          | 0          | 0          |   0.0 |  0.00
[...]
  13 atoms
  read_data CPU = 0.000 seconds
pair_style eam
pair_coeff * * Au.eam
thermo 1000
thermo_style custom step etotal atoms vol
thermo_modify format float %5.14g
variable potential equal pe/atoms
neigh_modify one 5000 delay 0 every 1 check yes
run 0 pre no
Neighbor list info ...
  update every 1 steps, delay 0 steps, check yes
  max neighbors/atom: 5000, page size: 100000
  master list distance cutoff = 13.999
  ghost atom cutoff = 13.999
  binsize = 6.9995, bins = 8 8 8
  1 neighbor lists, perpetual/occasional/extra = 1 0 0
  (1) pair eam, perpetual
      attributes: half, newton on
      pair build: half/bin/atomonly/newton
      stencil: half/bin/3d
      bin: standard
Per MPI rank memory allocation (min/avg/max) = 3.17 | 3.17 | 3.17 Mbytes
   Step         TotEng        Atoms        Volume    
WARNING: Too many warnings: 187 vs 100. All future warnings will be suppressed (../thermo.cpp:461)
         0  -24.060131426439         13  125000
Loop time of 8.118e-06 on 1 procs for 0 steps with 13 atoms

61.6% CPU use with 1 MPI tasks x no OpenMP threads

MPI task timing breakdown:
Section |  min time  |  avg time  |  max time  |%varavg| %total
---------------------------------------------------------------
Pair    | 0          | 0          | 0          |   0.0 |  0.00
Neigh   | 0          | 0          | 0          |   0.0 |  0.00
Comm    | 0          | 0          | 0          |   0.0 |  0.00
Output  | 0          | 0          | 0          |   0.0 |  0.00
Modify  | 0          | 0          | 0          |   0.0 |  0.00
Other   |            | 8.118e-06  |            |       |100.00

Nlocal:             13 ave          13 max          13 min
Histogram: 1 0 0 0 0 0 0 0 0 0
Nghost:              0 ave           0 max           0 min
Histogram: 1 0 0 0 0 0 0 0 0 0
Neighs:             78 ave          78 max          78 min
Histogram: 1 0 0 0 0 0 0 0 0 0

Total # of neighbors = 78
Ave neighs/atom = 6
Neighbor list builds = 0
Dangerous builds = 0
minimize 1.0e-8 1.0e-8 10000 10000
Per MPI rank memory allocation (min/avg/max) = 4.295 | 4.295 | 4.295 Mbytes
   Step         TotEng        Atoms        Volume    
         0  -24.060131426439         13  125000
        61  -41.675993038145         13  125000
Loop time of 0.00114123 on 1 procs for 61 steps with 13 atoms

62.6% CPU use with 1 MPI tasks x no OpenMP threads

Minimization stats:
  Stopping criterion = energy tolerance
  Energy initial, next-to-last, final = 
     -24.0601314264393  -41.6759928170429  -41.6759930381448
  Force two-norm initial, final = 49.841854 0.0012792933
  Force max component initial, final = 19.129348 0.0006213227
  Final line search alpha, max atom move = 1 0.0006213227
  Iterations, force evaluations = 61 107

MPI task timing breakdown:
Section |  min time  |  avg time  |  max time  |%varavg| %total
---------------------------------------------------------------
Pair    | 0.00073952 | 0.00073952 | 0.00073952 |   0.0 | 64.80
Neigh   | 9.742e-06  | 9.742e-06  | 9.742e-06  |   0.0 |  0.85
Comm    | 0.0001733  | 0.0001733  | 0.0001733  |   0.0 | 15.19
Output  | 0          | 0          | 0          |   0.0 |  0.00
Modify  | 0          | 0          | 0          |   0.0 |  0.00
Other   |            | 0.0002187  |            |       | 19.16

Nlocal:             13 ave          13 max          13 min
Histogram: 1 0 0 0 0 0 0 0 0 0
Nghost:              0 ave           0 max           0 min
Histogram: 1 0 0 0 0 0 0 0 0 0
Neighs:             78 ave          78 max          78 min
Histogram: 1 0 0 0 0 0 0 0 0 0

Total # of neighbors = 78
Ave neighs/atom = 6
Neighbor list builds = 2
Dangerous builds = 0
write_data min.geo
System init for write_data ...
run 0 pre no
   Step         TotEng        Atoms        Volume    
        61  -41.675993038145         13  125000
Loop time of 1.597e-05 on 1 procs for 0 steps with 13 atoms

87.7% CPU use with 1 MPI tasks x no OpenMP threads

MPI task timing breakdown:
Section |  min time  |  avg time  |  max time  |%varavg| %total
---------------------------------------------------------------
Pair    | 0          | 0          | 0          |   0.0 |  0.00
Neigh   | 0          | 0          | 0          |   0.0 |  0.00
Comm    | 0          | 0          | 0          |   0.0 |  0.00
Output  | 0          | 0          | 0          |   0.0 |  0.00
Modify  | 0          | 0          | 0          |   0.0 |  0.00
Other   |            | 1.597e-05  |            |       |100.00

Nlocal:             13 ave          13 max          13 min
Histogram: 1 0 0 0 0 0 0 0 0 0
Nghost:              0 ave           0 max           0 min
Histogram: 1 0 0 0 0 0 0 0 0 0
Neighs:             78 ave          78 max          78 min
Histogram: 1 0 0 0 0 0 0 0 0 0

Total # of neighbors = 78
Ave neighs/atom = 6
Neighbor list builds = 0
Dangerous builds = 0
clear
dimension 3
box tilt large
units metal
atom_style atomic
neighbor 2.0 bin
atom_modify map array sort 0 0
boundary f f f
read_data in.data
Reading data file ...
  orthogonal box = (0 0 0) to (50 50 50)
  1 by 1 by 1 MPI processor grid
  reading atoms ...
  13 atoms
  read_data CPU = 0.000 seconds
pair_style eam
pair_coeff * * Au.eam
thermo 1000
thermo_style custom step etotal atoms vol
thermo_modify format float %5.14g
variable potential equal pe/atoms
neigh_modify one 5000 delay 0 every 1 check yes
run 0 pre no
Neighbor list info ...
  update every 1 steps, delay 0 steps, check yes
  max neighbors/atom: 5000, page size: 100000
  master list distance cutoff = 13.999
  ghost atom cutoff = 13.999
  binsize = 6.9995, bins = 8 8 8
  1 neighbor lists, perpetual/occasional/extra = 1 0 0
  (1) pair eam, perpetual
      attributes: half, newton on
      pair build: half/bin/atomonly/newton
      stencil: half/bin/3d
      bin: standard
Per MPI rank memory allocation (min/avg/max) = 3.17 | 3.17 | 3.17 Mbytes
   Step         TotEng        Atoms        Volume    
WARNING: Too many warnings: 188 vs 100. All future warnings will be suppressed (../thermo.cpp:461)
         0  -29.680412765548         13  125000
Loop time of 7.03e-06 on 1 procs for 0 steps with 13 atoms

71.1% CPU use with 1 MPI tasks x no OpenMP threads

MPI task timing breakdown:
Section |  min time  |  avg time  |  max time  |%varavg| %total
---------------------------------------------------------------
Pair    | 0          | 0          | 0          |   0.0 |  0.00
Neigh   | 0          | 0          | 0          |   0.0 |  0.00
Comm    | 0          | 0          | 0          |   0.0 |  0.00
Output  | 0          | 0          | 0          |   0.0 |  0.00
Modify  | 0          | 0          | 0          |   0.0 |  0.00
Other   |            | 7.03e-06   |            |       |100.00

Nlocal:             13 ave          13 max          13 min
Histogram: 1 0 0 0 0 0 0 0 0 0
Nghost:              0 ave           0 max           0 min
Histogram: 1 0 0 0 0 0 0 0 0 0
Neighs:             78 ave          78 max          78 min
Histogram: 1 0 0 0 0 0 0 0 0 0

Total # of neighbors = 78
Ave neighs/atom = 6
Neighbor list builds = 0
Dangerous builds = 0
minimize 1.0e-8 1.0e-8 10000 10000
Per MPI rank memory allocation (min/avg/max) = 4.295 | 4.295 | 4.295 Mbytes
   Step         TotEng        Atoms        Volume    
         0  -29.680412765548         13  125000
        76  -41.582555945923         13  125000
Loop time of 0.00118153 on 1 procs for 76 steps with 13 atoms

88.0% CPU use with 1 MPI tasks x no OpenMP threads

Minimization stats:
  Stopping criterion = energy tolerance
  Energy initial, next-to-last, final = 
     -29.6804127655485  -41.5825556102701  -41.5825559459227
  Force two-norm initial, final = 31.810202 0.001683663
  Force max component initial, final = 13.21992 0.00091374817
  Final line search alpha, max atom move = 1 0.00091374817
  Iterations, force evaluations = 76 136

MPI task timing breakdown:
Section |  min time  |  avg time  |  max time  |%varavg| %total
---------------------------------------------------------------
Pair    | 0.00079185 | 0.00079185 | 0.00079185 |   0.0 | 67.02
Neigh   | 3.851e-06  | 3.851e-06  | 3.851e-06  |   0.0 |  0.33
Comm    | 0.00017218 | 0.00017218 | 0.00017218 |   0.0 | 14.57
Output  | 0          | 0          | 0          |   0.0 |  0.00
Modify  | 0          | 0          | 0          |   0.0 |  0.00
Other   |            | 0.0002136  |            |       | 18.08

Nlocal:             13 ave          13 max          13 min
Histogram: 1 0 0 0 0 0 0 0 0 0
Nghost:              0 ave           0 max           0 min
Histogram: 1 0 0 0 0 0 0 0 0 0
Neighs:             78 ave          78 max          78 min
Histogram: 1 0 0 0 0 0 0 0 0 0

Total # of neighbors = 78
Ave neighs/atom = 6
Neighbor list builds = 1
Dangerous builds = 0
write_data min.geo
System init for write_data ...
run 0 pre no
   Step         TotEng        Atoms        Volume    
        76  -41.582555945923         13  125000
Loop time of 7.116e-06 on 1 procs for 0 steps with 13 atoms

168.6% CPU use with 1 MPI tasks x no OpenMP threads

MPI task timing breakdown:
Section |  min time  |  avg time  |  max time  |%varavg| %total
---------------------------------------------------------------
Pair    | 0          | 0          | 0          |   0.0 |  0.00
Neigh   | 0          | 0          | 0          |   0.0 |  0.00
Comm    | 0          | 0          | 0          |   0.0 |  0.00
Output  | 0          | 0          | 0          |   0.0 |  0.00
Modify  | 0          | 0          | 0          |   0.0 |  0.00
Other   |            | 7.116e-06  |            |       |100.00

Nlocal:             13 ave          13 max          13 min
Histogram: 1 0 0 0 0 0 0 0 0 0
Nghost:              0 ave           0 max           0 min
Histogram: 1 0 0 0 0 0 0 0 0 0
Neighs:             78 ave          78 max          78 min
Histogram: 1 0 0 0 0 0 0 0 0 0

Total # of neighbors = 78
Ave neighs/atom = 6
Neighbor list builds = 0
Dangerous builds = 0
clear
dimension 3
box tilt large
units metal
atom_style atomic
neighbor 2.0 bin
atom_modify map array sort 0 0
boundary f f f
read_data in.data
Reading data file ...
  orthogonal box = (0 0 0) to (50 50 50)
  1 by 1 by 1 MPI processor grid
  reading atoms ...
  13 atoms
  read_data CPU = 0.000 seconds
pair_style eam
pair_coeff * * Au.eam
thermo 1000
thermo_style custom step etotal atoms vol
thermo_modify format float %5.14g
variable potential equal pe/atoms
neigh_modify one 5000 delay 0 every 1 check yes
run 0 pre no
Neighbor list info ...
  update every 1 steps, delay 0 steps, check yes
  max neighbors/atom: 5000, page size: 100000
  master list distance cutoff = 13.999
  ghost atom cutoff = 13.999
  binsize = 6.9995, bins = 8 8 8
  1 neighbor lists, perpetual/occasional/extra = 1 0 0
  (1) pair eam, perpetual
      attributes: half, newton on
      pair build: half/bin/atomonly/newton
      stencil: half/bin/3d
      bin: standard
Per MPI rank memory allocation (min/avg/max) = 3.17 | 3.17 | 3.17 Mbytes
   Step         TotEng        Atoms        Volume    
WARNING: Too many warnings: 189 vs 100. All future warnings will be suppressed (../thermo.cpp:461)
         0  -29.447524409306         13  125000
Loop time of 6.974e-06 on 1 procs for 0 steps with 13 atoms

57.4% CPU use with 1 MPI tasks x no OpenMP threads

MPI task timing breakdown:
Section |  min time  |  avg time  |  max time  |%varavg| %total
---------------------------------------------------------------
Pair    | 0          | 0          | 0          |   0.0 |  0.00
Neigh   | 0          | 0          | 0          |   0.0 |  0.00
Comm    | 0          | 0          | 0          |   0.0 |  0.00
Output  | 0          | 0          | 0          |   0.0 |  0.00
Modify  | 0          | 0          | 0          |   0.0 |  0.00
Other   |            | 6.974e-06  |            |       |100.00

Nlocal:             13 ave          13 max          13 min
Histogram: 1 0 0 0 0 0 0 0 0 0
Nghost:              0 ave           0 max           0 min
Histogram: 1 0 0 0 0 0 0 0 0 0
Neighs:             78 ave          78 max          78 min
Histogram: 1 0 0 0 0 0 0 0 0 0

Total # of neighbors = 78
Ave neighs/atom = 6
Neighbor list builds = 0
Dangerous builds = 0
minimize 1.0e-8 1.0e-8 10000 10000
Per MPI rank memory allocation (min/avg/max) = 4.295 | 4.295 | 4.295 Mbytes
   Step         TotEng        Atoms        Volume    
         0  -29.447524409306         13  125000
        50  -41.582556029936         13  125000
Loop time of 0.000786125 on 1 procs for 50 steps with 13 atoms

99.7% CPU use with 1 MPI tasks x no OpenMP threads

Minimization stats:
  Stopping criterion = energy tolerance
  Energy initial, next-to-last, final = 
     -29.4475244093057  -41.5825558032959  -41.5825560299356
  Force two-norm initial, final = 60.431079 0.0018922087
  Force max component initial, final = 39.5165 0.00090152717
  Final line search alpha, max atom move = 1 0.00090152717
  Iterations, force evaluations = 50 89

MPI task timing breakdown:
Section |  min time  |  avg time  |  max time  |%varavg| %total
---------------------------------------------------------------
Pair    | 0.00051523 | 0.00051523 | 0.00051523 |   0.0 | 65.54
Neigh   | 4.211e-06  | 4.211e-06  | 4.211e-06  |   0.0 |  0.54
Comm    | 0.00011605 | 0.00011605 | 0.00011605 |   0.0 | 14.76
Output  | 0          | 0          | 0          |   0.0 |  0.00
Modify  | 0          | 0          | 0          |   0.0 |  0.00
Other   |            | 0.0001506  |            |       | 19.16

Nlocal:             13 ave          13 max          13 min
Histogram: 1 0 0 0 0 0 0 0 0 0
Nghost:              0 ave           0 max           0 min
Histogram: 1 0 0 0 0 0 0 0 0 0
Neighs:             78 ave          78 max          78 min
Histogram: 1 0 0 0 0 0 0 0 0 0

Total # of neighbors = 78
Ave neighs/atom = 6
Neighbor list builds = 1
Dangerous builds = 0
write_data min.geo
System init for write_data ...
run 0 pre no
   Step         TotEng        Atoms        Volume    
        50  -41.582556029936         13  125000
Loop time of 7.945e-06 on 1 procs for 0 steps with 13 atoms

163.6% CPU use with 1 MPI tasks x no OpenMP threads

MPI task timing breakdown:
Section |  min time  |  avg time  |  max time  |%varavg| %total
---------------------------------------------------------------
Pair    | 0          | 0          | 0          |   0.0 |  0.00
Neigh   | 0          | 0          | 0          |   0.0 |  0.00
Comm    | 0          | 0          | 0          |   0.0 |  0.00
Output  | 0          | 0          | 0          |   0.0 |  0.00
Modify  | 0          | 0          | 0          |   0.0 |  0.00
Other   |            | 7.945e-06  |            |       |100.00

Nlocal:             13 ave          13 max          13 min
Histogram: 1 0 0 0 0 0 0 0 0 0
Nghost:              0 ave           0 max           0 min
Histogram: 1 0 0 0 0 0 0 0 0 0
Neighs:             78 ave          78 max          78 min
Histogram: 1 0 0 0 0 0 0 0 0 0

Total # of neighbors = 78
Ave neighs/atom = 6
Neighbor list builds = 0
Dangerous builds = 0
clear
dimension 3
box tilt large
units metal
atom_style atomic
neighbor 2.0 bin
atom_modify map array sort 0 0
boundary f f f
read_data in.data
Reading data file ...
  orthogonal box = (0 0 0) to (50 50 50)
  1 by 1 by 1 MPI processor grid
  reading atoms ...
  13 atoms
  read_data CPU = 0.000 seconds
pair_style eam
pair_coeff * * Au.eam
thermo 1000
thermo_style custom step etotal atoms vol
thermo_modify format float %5.14g
variable potential equal pe/atoms
neigh_modify one 5000 delay 0 every 1 check yes
run 0 pre no
Neighbor list info ...
  update every 1 steps, delay 0 steps, check yes
  max neighbors/atom: 5000, page size: 100000
  master list distance cutoff = 13.999
  ghost atom cutoff = 13.999
  binsize = 6.9995, bins = 8 8 8
  1 neighbor lists, perpetual/occasional/extra = 1 0 0
  (1) pair eam, perpetual
      attributes: half, newton on
      pair build: half/bin/atomonly/newton
      stencil: half/bin/3d
      bin: standard
Per MPI rank memory allocation (min/avg/max) = 3.17 | 3.17 | 3.17 Mbytes
   Step         TotEng        Atoms        Volume    
WARNING: Too many warnings: 190 vs 100. All future warnings will be suppressed (../thermo.cpp:461)
         0  -29.331033199353         13  125000
Loop time of 8.186e-06 on 1 procs for 0 steps with 13 atoms

73.3% CPU use with 1 MPI tasks x no OpenMP threads

MPI task timing breakdown:
Section |  min time  |  avg time  |  max time  |%varavg| %total
---------------------------------------------------------------
Pair    | 0          | 0          | 0          |   0.0 |  0.00
Neigh   | 0          | 0          | 0          |   0.0 |  0.00
Comm    | 0          | 0          | 0          |   0.0 |  0.00
Output  | 0          | 0          | 0          |   0.0 |  0.00
Modify  | 0          | 0          | 0          |   0.0 |  0.00
Other   |            | 8.186e-06  |            |       |100.00

Nlocal:             13 ave          13 max          13 min
Histogram: 1 0 0 0 0 0 0 0 0 0
Nghost:              0 ave           0 max           0 min
Histogram: 1 0 0 0 0 0 0 0 0 0
Neighs:             78 ave          78 max          78 min
Histogram: 1 0 0 0 0 0 0 0 0 0

Total # of neighbors = 78
Ave neighs/atom = 6
Neighbor list builds = 0
Dangerous builds = 0
minimize 1.0e-8 1.0e-8 10000 10000
Per MPI rank memory allocation (min/avg/max) = 4.295 | 4.295 | 4.295 Mbytes
   Step         TotEng        Atoms        Volume    
         0  -29.331033199353         13  125000
        53  -41.73536048475         13  125000
Loop time of 0.000957767 on 1 procs for 53 steps with 13 atoms

99.8% CPU use with 1 MPI tasks x no OpenMP threads

Minimization stats:
  Stopping criterion = energy tolerance
  Energy initial, next-to-last, final = 
     -29.3310331993528  -41.7353602412755  -41.7353604847495
  Force two-norm initial, final = 51.366062 0.0019768055
  Force max component initial, final = 21.023498 0.00071446386
  Final line search alpha, max atom move = 1 0.00071446386
  Iterations, force evaluations = 53 87

MPI task timing breakdown:
Section |  min time  |  avg time  |  max time  |%varavg| %total
---------------------------------------------------------------
Pair    | 0.00061962 | 0.00061962 | 0.00061962 |   0.0 | 64.69
Neigh   | 9.534e-06  | 9.534e-06  | 9.534e-06  |   0.0 |  1.00
Comm    | 0.00014248 | 0.00014248 | 0.00014248 |   0.0 | 14.88
Output  | 0          | 0          | 0          |   0.0 |  0.00
Modify  | 0          | 0          | 0          |   0.0 |  0.00
Other   |            | 0.0001861  |            |       | 19.43

Nlocal:             13 ave          13 max          13 min
Histogram: 1 0 0 0 0 0 0 0 0 0
Nghost:              0 ave           0 max           0 min
Histogram: 1 0 0 0 0 0 0 0 0 0
Neighs:             78 ave          78 max          78 min
Histogram: 1 0 0 0 0 0 0 0 0 0

Total # of neighbors = 78
Ave neighs/atom = 6
Neighbor list builds = 2
Dangerous builds = 0
write_data min.geo
System init for write_data ...
run 0 pre no
   Step         TotEng        Atoms        Volume    
        53  -41.73536048475         13  125000
Loop time of 7.905e-06 on 1 procs for 0 steps with 13 atoms

177.1% CPU use with 1 MPI tasks x no OpenMP threads

MPI task timing breakdown:
Section |  min time  |  avg time  |  max time  |%varavg| %total
---------------------------------------------------------------
Pair    | 0          | 0          | 0          |   0.0 |  0.00
Neigh   | 0          | 0          | 0          |   0.0 |  0.00
Comm    | 0          | 0          | 0          |   0.0 |  0.00
Output  | 0          | 0          | 0          |   0.0 |  0.00
Modify  | 0          | 0          | 0          |   0.0 |  0.00
Other   |            | 7.905e-06  |            |       |100.00

Nlocal:             13 ave          13 max          13 min
Histogram: 1 0 0 0 0 0 0 0 0 0
Nghost:              0 ave           0 max           0 min
Histogram: 1 0 0 0 0 0 0 0 0 0
Neighs:             78 ave          78 max          78 min
Histogram: 1 0 0 0 0 0 0 0 0 0

Total # of neighbors = 78
Ave neighs/atom = 6
Neighbor list builds = 0
Dangerous builds = 0
