LAMMPS data file via write_data, version 24 Mar 2022, timestep = 51

13 atoms
1 atom types

0 50 xlo xhi
0 50 ylo yhi
0 50 zlo zhi

Masses

1 196.96657

Atoms # atomic

1 1 22.503175453827563 23.920481088344026 26.0093030873459 0 0 0
2 1 24.594483820152195 25.784339653404036 26.36551380605123 0 0 0
3 1 26.426584165265183 23.63699181688945 26.446592436184307 0 0 0
4 1 22.548230576944125 26.130392481809483 24.49399220434438 0 0 0
5 1 22.176382912999795 23.76802366988722 23.356491206160065 0 0 0
6 1 24.26153603673561 23.654503451995364 27.971977183682824 0 0 0
7 1 24.374935973136935 22.035534504844428 25.904651801675993 0 0 0
8 1 24.715862880391224 24.135870849974683 24.208594663095173 0 0 0
9 1 27.30184176453818 23.397949342423022 23.927866325654396 0 0 0
10 1 23.687304119888932 25.553361251512115 22.10245768691542 0 0 0
11 1 24.961524508393758 27.082745977414902 23.913702635279527 0 0 0
12 1 26.371447108386004 25.3596257735315 22.401765611599693 0 0 0
13 1 27.02881867934054 25.806823137969783 24.99357435201112 0 0 0

Velocities

1 0 0 0
2 0 0 0
3 0 0 0
4 0 0 0
5 0 0 0
6 0 0 0
7 0 0 0
8 0 0 0
9 0 0 0
10 0 0 0
11 0 0 0
12 0 0 0
13 0 0 0
