LAMMPS data file via write_data, version 24 Mar 2022, timestep = 53

13 atoms
1 atom types

0 50 xlo xhi
0 50 ylo yhi
0 50 zlo zhi

Masses

1 196.96657

Atoms # atomic

1 1 22.725286855314643 26.130628070884004 26.36983371268227 0 0 0
2 1 27.08661198528378 27.713981933169038 26.13134203174223 0 0 0
3 1 25.334921140589778 25.94103923809529 27.28150499635388 0 0 0
4 1 21.89227640623778 23.913264609432797 25.31459365814823 0 0 0
5 1 22.863480037662786 25.817875329464137 23.59201330079416 0 0 0
6 1 23.550029844056247 23.84473911348398 27.485318643756894 0 0 0
7 1 24.510534051176165 24.192887895738547 25.013703624192416 0 0 0
8 1 25.504692154058304 25.35448682456246 22.7910435906526 0 0 0
9 1 26.155046981519213 23.469157061897914 26.987216264162573 0 0 0
10 1 24.740892365402367 27.23064089162775 24.95372415072781 0 0 0
11 1 24.45393234975941 27.685260786797805 22.35852616278195 0 0 0
12 1 26.945568015389238 27.503915422013694 23.46481032148552 0 0 0
13 1 27.001363813550288 25.296660822832578 25.122145542519455 0 0 0

Velocities

1 0 0 0
2 0 0 0
3 0 0 0
4 0 0 0
5 0 0 0
6 0 0 0
7 0 0 0
8 0 0 0
9 0 0 0
10 0 0 0
11 0 0 0
12 0 0 0
13 0 0 0
